LAMMPS (7 Jan 2022)
  using 1 OpenMP thread(s) per MPI task
Lattice spacing in x,y,z = 1.6795962 1.6795962 1.6795962
Created orthogonal box = (0 0 0) to (33.591924 33.591924 33.591924)
  2 by 4 by 4 MPI processor grid
Created 32000 atoms
  using lattice units in orthogonal box = (0 0 0) to (33.591924 33.591924 33.591924)
  create_atoms CPU = 0.001 seconds
----------------------------------------------------------
Using INTEL Package without Coprocessor.
Compiler: Intel Classic C++ 20.21.5 / Intel(R) C++ g++ 9.3 mode
SIMD compiler directives: Enabled
Precision: mixed
----------------------------------------------------------
  generated 0 of 0 mixed pair_coeff terms from geometric mixing rule
Neighbor list info ...
  update every 20 steps, delay 0 steps, check no
  max neighbors/atom: 2000, page size: 100000
  master list distance cutoff = 2.8
  ghost atom cutoff = 2.8
  binsize = 1.4, bins = 24 24 24
  1 neighbor lists, perpetual/occasional/extra = 1 0 0
  (1) pair lj/cut/intel, perpetual
      attributes: half, newton on, intel
      pair build: half/bin/newton/intel
      stencil: half/bin/3d
      bin: intel
Setting up Verlet run ...
  Unit style    : lj
  Current step  : 0
  Time step     : 0.005
Per MPI rank memory allocation (min/avg/max) = 9.719 | 11.32 | 13.08 Mbytes
Step Temp E_pair E_mol TotEng Press 
       0         1.44   -6.7733683            0   -4.6134358    -5.019707 
   10000   0.69723332   -5.6671809            0   -4.6213636   0.73948755 
Loop time of 2.16519 on 32 procs for 10000 steps with 32000 atoms

Performance: 1995206.567 tau/day, 4618.534 timesteps/s
99.9% CPU use with 32 MPI tasks x 1 OpenMP threads

MPI task timing breakdown:
Section |  min time  |  avg time  |  max time  |%varavg| %total
---------------------------------------------------------------
Pair    | 1.2553     | 1.307      | 1.3387     |   2.1 | 60.36
Neigh   | 0.14227    | 0.14836    | 0.15386    |   0.8 |  6.85
Comm    | 0.59321    | 0.62404    | 0.68282    |   3.2 | 28.82
Output  | 4.3598e-05 | 4.8962e-05 | 5.7997e-05 |   0.0 |  0.00
Modify  | 0.067151   | 0.068449   | 0.069173   |   0.3 |  3.16
Other   |            | 0.0173     |            |       |  0.80

Nlocal:           1000 ave        1022 max         984 min
Histogram: 3 2 3 8 3 7 4 1 0 1
Nghost:        2697.66 ave        2739 max        2667 min
Histogram: 3 5 3 5 4 4 3 2 1 2
Neighs:        37495.9 ave       38666 max       36230 min
Histogram: 3 2 1 2 5 3 9 5 1 1

Total # of neighbors = 1199869
Ave neighs/atom = 37.495906
Neighbor list builds = 500
Dangerous builds not checked
Total wall time: 0:00:02
