LAMMPS (7 Jan 2022)
  using 1 OpenMP thread(s) per MPI task
Reading data file ...
  orthogonal box = (0 0 0) to (40 20 37.2886)
  2 by 2 by 2 MPI processor grid
  reading atoms ...
  32000 atoms
  reading velocities ...
  32000 velocities
  read_data CPU = 0.111 seconds
Replicating atoms ...
WARNING: Replicating in a non-periodic dimension (../replicate.cpp:73)
  orthogonal box = (0 0 0) to (160 80 149.16892)
  2 by 2 by 2 MPI processor grid
  2048000 atoms
  replicate CPU = 0.109 seconds
58368 atoms in group bottom
1989632 atoms in group active
  generated 0 of 1 mixed pair_coeff terms from geometric mixing rule
Neighbor list info ...
  update every 1 steps, delay 0 steps, check yes
  max neighbors/atom: 2000, page size: 100000
  master list distance cutoff = 1.1
  ghost atom cutoff = 1.1
  binsize = 0.55, bins = 291 146 272
  1 neighbor lists, perpetual/occasional/extra = 1 0 0
  (1) pair gran/hooke/history, perpetual
      attributes: half, newton off, size, history
      pair build: half/size/bin/newtoff
      stencil: full/bin/3d
      bin: standard
Setting up Verlet run ...
  Unit style    : lj
  Current step  : 0
  Time step     : 0.0001
Per MPI rank memory allocation (min/avg/max) = 123.9 | 123.9 | 123.9 Mbytes
Step Atoms KinEng c_1 Volume 
       0  2048000     50184904    102472.08    1909505.3 
     100  2048000     64155949    5956059.3    1909526.9 
     125  2048000     62226070      5403114    1909532.3 
Loop time of 8.20008 on 8 procs for 125 steps with 2048000 atoms

Performance: 131.706 tau/day, 15.244 timesteps/s
99.7% CPU use with 8 MPI tasks x 1 OpenMP threads

MPI task timing breakdown:
Section |  min time  |  avg time  |  max time  |%varavg| %total
---------------------------------------------------------------
Pair    | 1.5263     | 1.5758     | 1.6144     |   2.3 | 19.22
Neigh   | 4.1322     | 4.3692     | 4.5521     |   7.3 | 53.28
Comm    | 0.29092    | 0.29421    | 0.29877    |   0.5 |  3.59
Output  | 0.0034705  | 0.0047389  | 0.0060679  |   1.4 |  0.06
Modify  | 1.2792     | 1.3222     | 1.3522     |   2.0 | 16.12
Other   |            | 0.6339     |            |       |  7.73

Nlocal:         256000 ave      256032 max      255968 min
Histogram: 4 0 0 0 0 0 0 0 0 4
Nghost:          24792 ave       25450 max       24134 min
Histogram: 4 0 0 0 0 0 0 0 0 4
Neighs:         907370 ave      907466 max      907275 min
Histogram: 4 0 0 0 0 0 0 0 0 4

Total # of neighbors = 7258964
Ave neighs/atom = 3.544416
Neighbor list builds = 31
Dangerous builds = 0
Total wall time: 0:00:08
