LAMMPS (7 Jan 2022)
  using 1 OpenMP thread(s) per MPI task
Lattice spacing in x,y,z = 1.6795962 1.6795962 1.6795962
Created orthogonal box = (0 0 0) to (67.183848 67.183848 67.183848)
  4 by 4 by 4 MPI processor grid
Created 256000 atoms
  using lattice units in orthogonal box = (0 0 0) to (67.183848 67.183848 67.183848)
  create_atoms CPU = 0.001 seconds
----------------------------------------------------------
Using INTEL Package without Coprocessor.
Compiler: Intel Classic C++ 20.21.5 / Intel(R) C++ g++ 9.3 mode
SIMD compiler directives: Enabled
Precision: mixed
----------------------------------------------------------
  generated 0 of 0 mixed pair_coeff terms from geometric mixing rule
Neighbor list info ...
  update every 20 steps, delay 0 steps, check no
  max neighbors/atom: 2000, page size: 100000
  master list distance cutoff = 2.8
  ghost atom cutoff = 2.8
  binsize = 1.4, bins = 48 48 48
  1 neighbor lists, perpetual/occasional/extra = 1 0 0
  (1) pair lj/cut/intel, perpetual
      attributes: half, newton on, intel
      pair build: half/bin/newton/intel
      stencil: half/bin/3d
      bin: intel
Setting up Verlet run ...
  Unit style    : lj
  Current step  : 0
  Time step     : 0.005
Per MPI rank memory allocation (min/avg/max) = 32.17 | 36.97 | 42.27 Mbytes
Step Temp E_pair E_mol TotEng Press 
       0         1.44   -6.7733683            0   -4.6133767   -5.0196736 
   10000   0.69632561   -5.6657159            0   -4.6212316   0.75160995 
Loop time of 9.00337 on 64 procs for 10000 steps with 256000 atoms

Performance: 479820.410 tau/day, 1110.695 timesteps/s
99.9% CPU use with 64 MPI tasks x 1 OpenMP threads

MPI task timing breakdown:
Section |  min time  |  avg time  |  max time  |%varavg| %total
---------------------------------------------------------------
Pair    | 5.4041     | 5.5091     | 5.6958     |   2.7 | 61.19
Neigh   | 0.52146    | 0.53704    | 0.55242    |   0.9 |  5.96
Comm    | 2.0829     | 2.3549     | 2.5617     |   6.0 | 26.16
Output  | 0.00011016 | 0.00012065 | 0.00014885 |   0.0 |  0.00
Modify  | 0.42699    | 0.53687    | 0.73468    |   8.3 |  5.96
Other   |            | 0.06528    |            |       |  0.73

Nlocal:           4000 ave        4032 max        3960 min
Histogram: 1 3 4 6 16 7 9 6 7 5
Nghost:         5490.3 ave        5532 max        5449 min
Histogram: 2 1 8 10 14 10 6 5 5 3
Neighs:         150003 ave      152417 max      147291 min
Histogram: 1 5 4 8 10 11 8 9 5 3

Total # of neighbors = 9600194
Ave neighs/atom = 37.500758
Neighbor list builds = 500
Dangerous builds not checked
Total wall time: 0:00:09
