LAMMPS (7 Jan 2022)
  using 1 OpenMP thread(s) per MPI task
Lattice spacing in x,y,z = 1.6795962 1.6795962 1.6795962
Created orthogonal box = (0 0 0) to (100.77577 100.77577 100.77577)
  2 by 4 by 4 MPI processor grid
Created 864000 atoms
  using lattice units in orthogonal box = (0 0 0) to (100.77577 100.77577 100.77577)
  create_atoms CPU = 0.003 seconds
----------------------------------------------------------
Using INTEL Package without Coprocessor.
Compiler: Intel Classic C++ 20.21.5 / Intel(R) C++ g++ 9.3 mode
SIMD compiler directives: Enabled
Precision: mixed
----------------------------------------------------------
  generated 0 of 0 mixed pair_coeff terms from geometric mixing rule
Neighbor list info ...
  update every 20 steps, delay 0 steps, check no
  max neighbors/atom: 2000, page size: 100000
  master list distance cutoff = 2.8
  ghost atom cutoff = 2.8
  binsize = 1.4, bins = 72 72 72
  1 neighbor lists, perpetual/occasional/extra = 1 0 0
  (1) pair lj/cut/intel, perpetual
      attributes: half, newton on, intel
      pair build: half/bin/newton/intel
      stencil: half/bin/3d
      bin: intel
Setting up Verlet run ...
  Unit style    : lj
  Current step  : 0
  Time step     : 0.005
Per MPI rank memory allocation (min/avg/max) = 236.8 | 236.8 | 236.8 Mbytes
Step Temp E_pair E_mol TotEng Press 
       0         1.44   -6.7733674            0   -4.6133699   -5.0196712 
   10000   0.69716455   -5.6668683            0   -4.6211227   0.74775734 
Loop time of 53.2263 on 32 procs for 10000 steps with 864000 atoms

Performance: 81162.905 tau/day, 187.877 timesteps/s
100.0% CPU use with 32 MPI tasks x 1 OpenMP threads

MPI task timing breakdown:
Section |  min time  |  avg time  |  max time  |%varavg| %total
---------------------------------------------------------------
Pair    | 38.286     | 38.692     | 39.101     |   3.4 | 72.69
Neigh   | 3.2993     | 3.3362     | 3.4887     |   1.9 |  6.27
Comm    | 5.489      | 5.9191     | 6.7985     |  11.8 | 11.12
Output  | 0.00015466 | 0.00021358 | 0.00030513 |   0.0 |  0.00
Modify  | 3.9353     | 4.3281     | 4.5282     |   5.4 |  8.13
Other   |            | 0.9503     |            |       |  1.79

Nlocal:          27000 ave       27074 max       26922 min
Histogram: 2 0 6 5 3 4 2 6 1 3
Nghost:        17813.1 ave       17901 max       17736 min
Histogram: 2 6 1 3 5 7 1 3 2 2
Neighs:    1.01263e+06 ave 1.02002e+06 max 1.00202e+06 min
Histogram: 1 2 0 1 5 8 6 4 2 3

Total # of neighbors = 32404037
Ave neighs/atom = 37.504672
Neighbor list builds = 500
Dangerous builds not checked
Total wall time: 0:00:53
