LAMMPS (7 Jan 2022)
  using 1 OpenMP thread(s) per MPI task
Reading data file ...
  orthogonal box = (0 0 0) to (40 20 37.2886)
  4 by 2 by 2 MPI processor grid
  reading atoms ...
  32000 atoms
  reading velocities ...
  32000 velocities
  read_data CPU = 0.102 seconds
Replicating atoms ...
WARNING: Replicating in a non-periodic dimension (../replicate.cpp:73)
  orthogonal box = (0 0 0) to (80 40 74.584458)
  4 by 2 by 2 MPI processor grid
  256000 atoms
  replicate CPU = 0.024 seconds
7296 atoms in group bottom
248704 atoms in group active
  generated 0 of 1 mixed pair_coeff terms from geometric mixing rule
Neighbor list info ...
  update every 1 steps, delay 0 steps, check yes
  max neighbors/atom: 2000, page size: 100000
  master list distance cutoff = 1.1
  ghost atom cutoff = 1.1
  binsize = 0.55, bins = 146 73 136
  1 neighbor lists, perpetual/occasional/extra = 1 0 0
  (1) pair gran/hooke/history, perpetual
      attributes: half, newton off, size, history
      pair build: half/size/bin/newtoff
      stencil: full/bin/3d
      bin: standard
Setting up Verlet run ...
  Unit style    : lj
  Current step  : 0
  Time step     : 0.0001
Per MPI rank memory allocation (min/avg/max) = 15.38 | 15.38 | 15.39 Mbytes
Step Atoms KinEng c_1 Volume 
       0   256000      6273113     12809.01     238682.2 
     100   256000    7437774.6    500527.87    238687.59 
     200   256000    6973153.1    366543.98    238693.78 
     300   256000    6720943.6    279900.66     238699.4 
     400   256000    6560303.9    225118.16    238704.53 
     500   256000    6458622.6    189351.76    238711.01 
Loop time of 1.98027 on 16 procs for 500 steps with 256000 atoms

Performance: 2181.523 tau/day, 252.491 timesteps/s
99.3% CPU use with 16 MPI tasks x 1 OpenMP threads

MPI task timing breakdown:
Section |  min time  |  avg time  |  max time  |%varavg| %total
---------------------------------------------------------------
Pair    | 0.46876    | 0.569      | 0.67429    |  10.1 | 28.73
Neigh   | 0.67738    | 0.69801    | 0.71448    |   1.6 | 35.25
Comm    | 0.13433    | 0.14263    | 0.14917    |   1.2 |  7.20
Output  | 0.0006374  | 0.0020882  | 0.0035967  |   2.1 |  0.11
Modify  | 0.29611    | 0.32862    | 0.36415    |   3.7 | 16.59
Other   |            | 0.2399     |            |       | 12.12

Nlocal:          16000 ave       16004 max       15996 min
Histogram: 8 0 0 0 0 0 0 0 0 8
Nghost:           4190 ave        4272 max        4107 min
Histogram: 8 0 0 0 0 0 0 0 0 8
Neighs:        58594.2 ave       58627 max       58559 min
Histogram: 4 4 0 0 0 0 0 0 0 8

Total # of neighbors = 937508
Ave neighs/atom = 3.6621406
Neighbor list builds = 63
Dangerous builds = 0
Total wall time: 0:00:02
