LAMMPS (7 Jan 2022)
  using 1 OpenMP thread(s) per MPI task
Reading data file ...
  orthogonal box = (0 0 0) to (40 20 37.2886)
  4 by 2 by 2 MPI processor grid
  reading atoms ...
  32000 atoms
  reading velocities ...
  32000 velocities
  read_data CPU = 0.100 seconds
Replicating atoms ...
WARNING: Replicating in a non-periodic dimension (../replicate.cpp:73)
  orthogonal box = (0 0 0) to (160 80 149.16892)
  4 by 2 by 2 MPI processor grid
  2048000 atoms
  replicate CPU = 0.098 seconds
58368 atoms in group bottom
1989632 atoms in group active
  generated 0 of 1 mixed pair_coeff terms from geometric mixing rule
Neighbor list info ...
  update every 1 steps, delay 0 steps, check yes
  max neighbors/atom: 2000, page size: 100000
  master list distance cutoff = 1.1
  ghost atom cutoff = 1.1
  binsize = 0.55, bins = 291 146 272
  1 neighbor lists, perpetual/occasional/extra = 1 0 0
  (1) pair gran/hooke/history, perpetual
      attributes: half, newton off, size, history
      pair build: half/size/bin/newtoff
      stencil: full/bin/3d
      bin: standard
Setting up Verlet run ...
  Unit style    : lj
  Current step  : 0
  Time step     : 0.0001
Per MPI rank memory allocation (min/avg/max) = 63.52 | 63.52 | 63.53 Mbytes
Step Atoms KinEng c_1 Volume 
       0  2048000     50184904    102472.08    1909505.3 
     100  2048000     64155949    5956059.3    1909526.9 
     125  2048000     62226070      5403114    1909532.3 
Loop time of 4.78393 on 16 procs for 125 steps with 2048000 atoms

Performance: 225.756 tau/day, 26.129 timesteps/s
99.6% CPU use with 16 MPI tasks x 1 OpenMP threads

MPI task timing breakdown:
Section |  min time  |  avg time  |  max time  |%varavg| %total
---------------------------------------------------------------
Pair    | 0.85318    | 0.89985    | 0.93752    |   2.3 | 18.81
Neigh   | 2.2615     | 2.391      | 2.4875     |   5.0 | 49.98
Comm    | 0.2309     | 0.2356     | 0.23985    |   0.5 |  4.92
Output  | 0.0021175  | 0.0027365  | 0.0034019  |   0.8 |  0.06
Modify  | 0.78878    | 0.83502    | 0.87273    |   2.2 | 17.45
Other   |            | 0.4197     |            |       |  8.77

Nlocal:         128000 ave      128016 max      127984 min
Histogram: 8 0 0 0 0 0 0 0 0 8
Nghost:          16168 ave       16508 max       15828 min
Histogram: 8 0 0 0 0 0 0 0 0 8
Neighs:         456510 ave      456558 max      456463 min
Histogram: 8 0 0 0 0 0 0 0 0 8

Total # of neighbors = 7304168
Ave neighs/atom = 3.5664883
Neighbor list builds = 31
Dangerous builds = 0
Total wall time: 0:00:05
