LAMMPS (7 Jan 2022)
  using 1 OpenMP thread(s) per MPI task
Reading data file ...
  orthogonal box = (-27.5 -38.5 -36.3646) to (27.5 38.5 36.3615)
  4 by 4 by 4 MPI processor grid
  reading atoms ...
  32000 atoms
  reading velocities ...
  32000 velocities
  scanning bonds ...
  4 = max bonds/atom
  scanning angles ...
  8 = max angles/atom
  scanning dihedrals ...
  18 = max dihedrals/atom
  scanning impropers ...
  2 = max impropers/atom
  reading bonds ...
  27723 bonds
  reading angles ...
  40467 angles
  reading dihedrals ...
  56829 dihedrals
  reading impropers ...
  1034 impropers
Finding 1-2 1-3 1-4 neighbors ...
  special bond factors lj:    0        0        0       
  special bond factors coul:  0        0        0       
     4 = max # of 1-2 neighbors
    12 = max # of 1-3 neighbors
    24 = max # of 1-4 neighbors
    26 = max # of special neighbors
  special bonds CPU = 0.007 seconds
  read_data CPU = 0.262 seconds
Replicating atoms ...
  orthogonal box = (-27.5 -38.5 -36.3646) to (82.5 115.5 109.0876)
  4 by 4 by 4 MPI processor grid
  256000 atoms
  221784 bonds
  323736 angles
  454632 dihedrals
  8272 impropers
Finding 1-2 1-3 1-4 neighbors ...
  special bond factors lj:    0        0        0       
  special bond factors coul:  0        0        0       
     4 = max # of 1-2 neighbors
    12 = max # of 1-3 neighbors
    24 = max # of 1-4 neighbors
    26 = max # of special neighbors
  special bonds CPU = 0.012 seconds
  replicate CPU = 0.033 seconds
Finding SHAKE clusters ...
   12936 = # of size 2 clusters
   29064 = # of size 3 clusters
    5976 = # of size 4 clusters
   33864 = # of frozen angles
  find clusters CPU = 0.006 seconds
PPPM initialization ...
  using 12-bit tables for long-range coulomb (../kspace.cpp:340)
  G vector (1/distance) = 0.25045586
  grid = 45 60 60
  stencil order = 7
  estimated absolute RMS force accuracy = 0.032785255
  estimated relative force accuracy = 9.8731821e-05
  using single precision MKL FFT
  3d grid and FFT values/proc = 9196 2880
----------------------------------------------------------
Using INTEL Package without Coprocessor.
Compiler: Intel Classic C++ 20.21.5 / Intel(R) C++ g++ 9.3 mode
SIMD compiler directives: Enabled
Precision: mixed
----------------------------------------------------------
  generated 2278 of 2278 mixed pair_coeff terms from arithmetic mixing rule
Neighbor list info ...
  update every 1 steps, delay 5 steps, check yes
  max neighbors/atom: 2000, page size: 100000
  master list distance cutoff = 12
  ghost atom cutoff = 12
  binsize = 6, bins = 19 26 25
  1 neighbor lists, perpetual/occasional/extra = 1 0 0
  (1) pair lj/charmm/coul/long/intel, perpetual
      attributes: half, newton on, intel
      pair build: half/bin/newton/intel
      stencil: half/bin/3d
      bin: intel
Setting up Verlet run ...
  Unit style    : real
  Current step  : 0
  Time step     : 2
Per MPI rank memory allocation (min/avg/max) = 71.03 | 71.67 | 72.31 Mbytes
---------------- Step        0 ----- CPU =      0.0000 (sec) ----------------
TotEng   =   -202864.5380 KinEng   =    171558.6503 Temp     =       299.0288 
PotEng   =   -374423.1883 E_bond   =     20303.9370 E_angle  =     87370.9630 
E_dihed  =     41694.2900 E_impro  =      1708.1116 E_vdwl   =    -18462.9090 
E_coul   =   1670250.1019 E_long   =  -2177287.6827 Press    =      -148.4154 
Volume   =   2463960.2680 
---------------- Step       50 ----- CPU =      0.5891 (sec) ----------------
TotEng   =   -202648.8415 KinEng   =    172008.0195 Temp     =       299.8121 
PotEng   =   -374656.8611 E_bond   =     19774.0733 E_angle  =     86693.4471 
E_dihed  =     41917.3644 E_impro  =      1816.9621 E_vdwl   =    -15944.9457 
E_coul   =   1668429.0062 E_long   =  -2177342.7685 Press    =       238.9827 
Volume   =   2464255.7501 
---------------- Step      100 ----- CPU =      1.2017 (sec) ----------------
TotEng   =   -202322.0824 KinEng   =    172719.9007 Temp     =       301.0529 
PotEng   =   -375041.9831 E_bond   =     20544.0858 E_angle  =     86258.0209 
E_dihed  =     41590.1117 E_impro  =      1734.0868 E_vdwl   =    -15193.5335 
E_coul   =   1667326.4580 E_long   =  -2177301.2129 Press    =        13.7577 
Volume   =   2465083.9313 
---------------- Step      150 ----- CPU =      1.7923 (sec) ----------------
TotEng   =   -202065.0626 KinEng   =    172251.7479 Temp     =       300.2369 
PotEng   =   -374316.8106 E_bond   =     20454.1887 E_angle  =     86834.8598 
E_dihed  =     42116.9263 E_impro  =      1624.5629 E_vdwl   =    -16578.3764 
E_coul   =   1668456.6157 E_long   =  -2177225.5875 Press    =       245.4922 
Volume   =   2468149.4579 
---------------- Step      200 ----- CPU =      2.3856 (sec) ----------------
TotEng   =   -200638.0325 KinEng   =    172237.2716 Temp     =       300.2116 
PotEng   =   -372875.3041 E_bond   =     19915.6405 E_angle  =     88600.8035 
E_dihed  =     41769.2227 E_impro  =      1860.1838 E_vdwl   =    -17200.0061 
E_coul   =   1669423.2129 E_long   =  -2177244.3615 Press    =        44.8873 
Volume   =   2471991.0530 
---------------- Step      250 ----- CPU =      3.0038 (sec) ----------------
TotEng   =   -199651.5427 KinEng   =    172662.8889 Temp     =       300.9535 
PotEng   =   -372314.4316 E_bond   =     20335.0579 E_angle  =     88801.5836 
E_dihed  =     41953.0747 E_impro  =      1700.8074 E_vdwl   =    -17044.2117 
E_coul   =   1669309.9798 E_long   =  -2177370.7234 Press    =      -140.3256 
Volume   =   2475151.1290 
---------------- Step      300 ----- CPU =      3.6119 (sec) ----------------
TotEng   =   -200329.6486 KinEng   =    171612.7790 Temp     =       299.1231 
PotEng   =   -371942.4276 E_bond   =     20480.9470 E_angle  =     87357.4463 
E_dihed  =     41772.6363 E_impro  =      1784.7503 E_vdwl   =    -17917.4886 
E_coul   =   1671762.3214 E_long   =  -2177183.0404 Press    =      -415.1467 
Volume   =   2477558.6121 
---------------- Step      350 ----- CPU =      4.2197 (sec) ----------------
TotEng   =   -201556.0831 KinEng   =    172310.4037 Temp     =       300.3391 
PotEng   =   -373866.4868 E_bond   =     20580.5239 E_angle  =     87538.2591 
E_dihed  =     42039.3101 E_impro  =      1664.2130 E_vdwl   =    -17644.4097 
E_coul   =   1669168.5501 E_long   =  -2177212.9333 Press    =      -440.3980 
Volume   =   2478525.7478 
---------------- Step      400 ----- CPU =      4.8136 (sec) ----------------
TotEng   =   -202579.2688 KinEng   =    171541.9550 Temp     =       298.9997 
PotEng   =   -374121.2238 E_bond   =     20245.6816 E_angle  =     87261.7214 
E_dihed  =     41834.7167 E_impro  =      1745.8906 E_vdwl   =    -16534.2554 
E_coul   =   1668622.7147 E_long   =  -2177297.6936 Press    =       156.4356 
Volume   =   2478346.2196 
---------------- Step      450 ----- CPU =      5.4213 (sec) ----------------
TotEng   =   -202787.5209 KinEng   =    171624.9876 Temp     =       299.1444 
PotEng   =   -374412.5085 E_bond   =     19945.6995 E_angle  =     87150.2183 
E_dihed  =     42133.5724 E_impro  =      1793.9751 E_vdwl   =    -16603.3310 
E_coul   =   1668377.7245 E_long   =  -2177210.3673 Press    =       262.8712 
Volume   =   2478133.4849 
---------------- Step      500 ----- CPU =      6.0302 (sec) ----------------
TotEng   =   -200947.6142 KinEng   =    172146.8818 Temp     =       300.0541 
PotEng   =   -373094.4959 E_bond   =     20621.4599 E_angle  =     87230.6514 
E_dihed  =     42067.7959 E_impro  =      1749.1227 E_vdwl   =    -16076.5638 
E_coul   =   1668524.6892 E_long   =  -2177211.6513 Press    =       -97.7094 
Volume   =   2478435.5150 
---------------- Step      550 ----- CPU =      6.6335 (sec) ----------------
TotEng   =   -199315.8944 KinEng   =    173081.4165 Temp     =       301.6830 
PotEng   =   -372397.3109 E_bond   =     20310.6028 E_angle  =     87451.4882 
E_dihed  =     41634.2138 E_impro  =      1853.6764 E_vdwl   =    -15834.9881 
E_coul   =   1669402.8508 E_long   =  -2177215.1547 Press    =       379.0307 
Volume   =   2479762.4558 
---------------- Step      600 ----- CPU =      7.2364 (sec) ----------------
TotEng   =   -199047.1064 KinEng   =    173172.5214 Temp     =       301.8418 
PotEng   =   -372219.6278 E_bond   =     20395.0531 E_angle  =     87995.7665 
E_dihed  =     42000.1578 E_impro  =      1752.8711 E_vdwl   =    -18103.4643 
E_coul   =   1670943.6632 E_long   =  -2177203.6752 Press    =       -65.2990 
Volume   =   2482205.1035 
Loop time of 7.23651 on 64 procs for 600 steps with 256000 atoms

Performance: 14.327 ns/day, 1.675 hours/ns, 82.913 timesteps/s
99.5% CPU use with 64 MPI tasks x 1 OpenMP threads

MPI task timing breakdown:
Section |  min time  |  avg time  |  max time  |%varavg| %total
---------------------------------------------------------------
Pair    | 3.6546     | 3.7819     | 3.9857     |   3.4 | 52.26
Bond    | 0.21388    | 0.22879    | 0.24683    |   2.1 |  3.16
Kspace  | 1.0062     | 1.2167     | 1.3575     |   6.3 | 16.81
Neigh   | 0.53412    | 0.53799    | 0.54227    |   0.3 |  7.43
Comm    | 0.4615     | 0.48124    | 0.51048    |   1.6 |  6.65
Output  | 0.00082285 | 0.00083495 | 0.0011395  |   0.0 |  0.01
Modify  | 0.87649    | 0.91491    | 0.94322    |   1.7 | 12.64
Other   |            | 0.07415    |            |       |  1.02

Nlocal:           4000 ave        4073 max        3920 min
Histogram: 6 4 2 14 10 5 4 1 11 7
Nghost:        15992.4 ave       16087 max       15911 min
Histogram: 1 6 9 11 13 6 7 5 4 2
Neighs:    1.49326e+06 ave 1.53539e+06 max 1.44454e+06 min
Histogram: 7 2 3 7 16 4 4 6 9 6

Total # of neighbors = 95568528
Ave neighs/atom = 373.31456
Ave special neighs/atom = 7.431875
Neighbor list builds = 70
Dangerous builds = 0
Total wall time: 0:00:07
