LAMMPS (7 Jan 2022)
  using 1 OpenMP thread(s) per MPI task
Lattice spacing in x,y,z = 3.615 3.615 3.615
Created orthogonal box = (0 0 0) to (72.3 72.3 72.3)
  2 by 2 by 4 MPI processor grid
Created 32000 atoms
  using lattice units in orthogonal box = (0 0 0) to (72.3 72.3 72.3)
  create_atoms CPU = 0.002 seconds
Reading eam potential file Cu_u3.eam with DATE: 2007-06-11
----------------------------------------------------------
Using INTEL Package without Coprocessor.
Compiler: Intel Classic C++ 20.21.5 / Intel(R) C++ g++ 9.3 mode
SIMD compiler directives: Enabled
Precision: double
----------------------------------------------------------
Neighbor list info ...
  update every 1 steps, delay 5 steps, check yes
  max neighbors/atom: 2000, page size: 100000
  master list distance cutoff = 5.95
  ghost atom cutoff = 5.95
  binsize = 2.975, bins = 25 25 25
  1 neighbor lists, perpetual/occasional/extra = 1 0 0
  (1) pair eam/intel, perpetual
      attributes: half, newton on, intel
      pair build: half/bin/newton/intel
      stencil: half/bin/3d
      bin: intel
Setting up Verlet run ...
  Unit style    : metal
  Current step  : 0
  Time step     : 0.005
Per MPI rank memory allocation (min/avg/max) = 19.11 | 20.8 | 22.46 Mbytes
Step Temp E_pair E_mol TotEng Press 
       0         1600      -113280            0   -106662.09    18703.573 
      50    781.69049   -109873.35            0   -106640.13    52273.088 
     100      801.832    -109957.3            0   -106640.77    51322.821 
Loop time of 0.121627 on 16 procs for 100 steps with 32000 atoms

Performance: 355.184 ns/day, 0.068 hours/ns, 822.185 timesteps/s
96.9% CPU use with 16 MPI tasks x 1 OpenMP threads

MPI task timing breakdown:
Section |  min time  |  avg time  |  max time  |%varavg| %total
---------------------------------------------------------------
Pair    | 0.088603   | 0.089868   | 0.092369   |   0.3 | 73.89
Neigh   | 0.0090784  | 0.00923    | 0.0094968  |   0.1 |  7.59
Comm    | 0.015887   | 0.018307   | 0.019705   |   0.8 | 15.05
Output  | 8.8639e-05 | 9.6907e-05 | 0.00011321 |   0.0 |  0.08
Modify  | 0.0020546  | 0.0022828  | 0.0025713  |   0.3 |  1.88
Other   |            | 0.001842   |            |       |  1.51

Nlocal:           2000 ave        2032 max        1967 min
Histogram: 1 1 2 1 4 1 1 3 0 2
Nghost:         4195.5 ave        4229 max        4164 min
Histogram: 2 0 3 1 1 2 3 2 1 1
Neighs:        75486.5 ave       76891 max       74215 min
Histogram: 3 1 0 3 2 1 2 2 1 1

Total # of neighbors = 1207784
Ave neighs/atom = 37.74325
Neighbor list builds = 13
Dangerous builds = 0
Total wall time: 0:00:00
