LAMMPS (7 Jan 2022)
  using 1 OpenMP thread(s) per MPI task
Lattice spacing in x,y,z = 3.615 3.615 3.615
Created orthogonal box = (0 0 0) to (289.2 289.2 289.2)
  2 by 2 by 4 MPI processor grid
Created 2048000 atoms
  using lattice units in orthogonal box = (0 0 0) to (289.2 289.2 289.2)
  create_atoms CPU = 0.029 seconds
Reading eam potential file Cu_u3.eam with DATE: 2007-06-11
----------------------------------------------------------
Using INTEL Package without Coprocessor.
Compiler: Intel Classic C++ 20.21.5 / Intel(R) C++ g++ 9.3 mode
SIMD compiler directives: Enabled
Precision: single
----------------------------------------------------------
Neighbor list info ...
  update every 1 steps, delay 5 steps, check yes
  max neighbors/atom: 2000, page size: 100000
  master list distance cutoff = 5.95
  ghost atom cutoff = 5.95
  binsize = 2.975, bins = 98 98 98
  1 neighbor lists, perpetual/occasional/extra = 1 0 0
  (1) pair eam/intel, perpetual
      attributes: half, newton on, intel
      pair build: half/bin/newton/intel
      stencil: half/bin/3d
      bin: intel
Setting up Verlet run ...
  Unit style    : metal
  Current step  : 0
  Time step     : 0.005
Per MPI rank memory allocation (min/avg/max) = 1090 | 1117 | 1144 Mbytes
Step Temp E_pair E_mol TotEng Press 
       0         1600   -7254923.5            0     -6831364    18703.655 
      50    780.81539   -7031665.4            0   -6824964.3    52291.354 
     100    798.21787   -7036243.9            0     -6824936    51479.443 
Loop time of 5.33213 on 16 procs for 100 steps with 2048000 atoms

Performance: 8.102 ns/day, 2.962 hours/ns, 18.754 timesteps/s
99.4% CPU use with 16 MPI tasks x 1 OpenMP threads

MPI task timing breakdown:
Section |  min time  |  avg time  |  max time  |%varavg| %total
---------------------------------------------------------------
Pair    | 4.2683     | 4.2827     | 4.3177     |   0.5 | 80.32
Neigh   | 0.42756    | 0.43148    | 0.44327    |   0.7 |  8.09
Comm    | 0.31426    | 0.35019    | 0.36793    |   2.0 |  6.57
Output  | 0.00096328 | 0.0010889  | 0.0012936  |   0.4 |  0.02
Modify  | 0.17381    | 0.18231    | 0.19239    |   1.2 |  3.42
Other   |            | 0.08432    |            |       |  1.58

Nlocal:         128000 ave      128295 max      127723 min
Histogram: 2 0 1 1 4 5 0 1 1 1
Nghost:        49866.6 ave       50143 max       49570 min
Histogram: 1 1 1 0 5 4 1 1 0 2
Neighs:    4.82891e+06 ave 4.85243e+06 max 4.80436e+06 min
Histogram: 3 2 0 3 0 0 3 0 1 4

Total # of neighbors = 77262593
Ave neighs/atom = 37.725875
Neighbor list builds = 15
Dangerous builds = 0
Total wall time: 0:00:05
