LAMMPS (7 Jan 2022)
  using 1 OpenMP thread(s) per MPI task
Reading data file ...
  orthogonal box = (-16.796 -16.796 -16.796) to (16.796 16.796 16.796)
  1 by 1 by 2 MPI processor grid
  reading atoms ...
  32000 atoms
  reading velocities ...
  32000 velocities
  scanning bonds ...
  1 = max bonds/atom
  reading bonds ...
  31680 bonds
Finding 1-2 1-3 1-4 neighbors ...
  special bond factors lj:    0        1        1       
  special bond factors coul:  0        1        1       
     2 = max # of 1-2 neighbors
     2 = max # of special neighbors
  special bonds CPU = 0.003 seconds
  read_data CPU = 0.105 seconds
Replicating atoms ...
  orthogonal box = (-16.796 -16.796 -16.796) to (83.98 83.98 83.98)
  1 by 1 by 2 MPI processor grid
  864000 atoms
  855360 bonds
Finding 1-2 1-3 1-4 neighbors ...
  special bond factors lj:    0        1        1       
  special bond factors coul:  0        1        1       
     2 = max # of 1-2 neighbors
     2 = max # of special neighbors
  special bonds CPU = 0.070 seconds
  replicate CPU = 0.118 seconds
----------------------------------------------------------
Using INTEL Package without Coprocessor.
Compiler: Intel Classic C++ 20.21.5 / Intel(R) C++ g++ 9.3 mode
SIMD compiler directives: Enabled
Precision: double
----------------------------------------------------------
  generated 0 of 0 mixed pair_coeff terms from geometric mixing rule
Neighbor list info ...
  update every 1 steps, delay 1 steps, check yes
  max neighbors/atom: 2000, page size: 100000
  master list distance cutoff = 1.52
  ghost atom cutoff = 1.52
  binsize = 0.76, bins = 133 133 133
  1 neighbor lists, perpetual/occasional/extra = 1 0 0
  (1) pair lj/cut/intel, perpetual
      attributes: half, newton on, intel
      pair build: half/bin/newton/intel
      stencil: half/bin/3d
      bin: intel
Setting up Verlet run ...
  Unit style    : lj
  Current step  : 0
  Time step     : 0.012
WARNING: Communication cutoff 1.52 is shorter than a bond length based estimate of 1.855. This may lead to errors. (../comm.cpp:723)
Per MPI rank memory allocation (min/avg/max) = 3807 | 3809 | 3810 Mbytes
Step Temp E_pair E_mol TotEng Press 
       0   0.97026852   0.44484087    20.494523    22.394765    4.6721833 
     100   0.97387174   0.44183768    20.501885    22.404528    4.6910692 
Loop time of 9.55492 on 2 procs for 100 steps with 864000 atoms

Performance: 10850.954 tau/day, 10.466 timesteps/s
99.5% CPU use with 2 MPI tasks x 1 OpenMP threads

MPI task timing breakdown:
Section |  min time  |  avg time  |  max time  |%varavg| %total
---------------------------------------------------------------
Pair    | 2.0634     | 2.0637     | 2.064      |   0.0 | 21.60
Bond    | 0.53663    | 0.55068    | 0.56472    |   1.9 |  5.76
Neigh   | 2.5062     | 2.5064     | 2.5065     |   0.0 | 26.23
Comm    | 1.8718     | 1.8873     | 1.9029     |   1.1 | 19.75
Output  | 0.0010406  | 0.0010424  | 0.0010441  |   0.0 |  0.01
Modify  | 2.2445     | 2.2447     | 2.2449     |   0.0 | 23.49
Other   |            | 0.3011     |            |       |  3.15

Nlocal:         432000 ave      432077 max      431923 min
Histogram: 1 0 0 0 0 0 0 0 0 1
Nghost:        54072.5 ave       54114 max       54031 min
Histogram: 1 0 0 0 0 0 0 0 0 1
Neighs:    2.53028e+06 ave 2.53155e+06 max 2.52902e+06 min
Histogram: 1 0 0 0 0 0 0 0 0 1

Total # of neighbors = 5060570
Ave neighs/atom = 5.8571412
Ave special neighs/atom = 1.98
Neighbor list builds = 25
Dangerous builds = 0
Total wall time: 0:00:10
