LAMMPS (7 Jan 2022)
  using 1 OpenMP thread(s) per MPI task
Reading data file ...
  orthogonal box = (0 0 0) to (40 20 37.2886)
  2 by 1 by 1 MPI processor grid
  reading atoms ...
  32000 atoms
  reading velocities ...
  32000 velocities
  read_data CPU = 0.123 seconds
Replicating atoms ...
  orthogonal box = (0 0 0) to (120 60 37.292229)
  2 by 1 by 1 MPI processor grid
  288000 atoms
  replicate CPU = 0.027 seconds
8208 atoms in group bottom
279792 atoms in group active
  generated 0 of 1 mixed pair_coeff terms from geometric mixing rule
Neighbor list info ...
  update every 1 steps, delay 0 steps, check yes
  max neighbors/atom: 2000, page size: 100000
  master list distance cutoff = 1.1
  ghost atom cutoff = 1.1
  binsize = 0.55, bins = 219 110 68
  1 neighbor lists, perpetual/occasional/extra = 1 0 0
  (1) pair gran/hooke/history, perpetual
      attributes: half, newton off, size, history
      pair build: half/size/bin/newtoff
      stencil: full/bin/3d
      bin: standard
Setting up Verlet run ...
  Unit style    : lj
  Current step  : 0
  Time step     : 0.0001
Per MPI rank memory allocation (min/avg/max) = 70.99 | 70.99 | 70.99 Mbytes
Step Atoms KinEng c_1 Volume 
       0   288000    7057252.2    14410.137    268504.05 
     100   288000    7058628.7    14139.871    268512.37 
Loop time of 1.3231 on 2 procs for 100 steps with 288000 atoms

Performance: 653.011 tau/day, 75.580 timesteps/s
96.6% CPU use with 2 MPI tasks x 1 OpenMP threads

MPI task timing breakdown:
Section |  min time  |  avg time  |  max time  |%varavg| %total
---------------------------------------------------------------
Pair    | 0.56083    | 0.63457    | 0.70831    |   9.3 | 47.96
Neigh   | 0.14672    | 0.16929    | 0.19185    |   5.5 | 12.79
Comm    | 0.037161   | 0.038064   | 0.038967   |   0.5 |  2.88
Output  | 0.00059929 | 0.0015345  | 0.0024698  |   2.4 |  0.12
Modify  | 0.24724    | 0.27458    | 0.30191    |   5.2 | 20.75
Other   |            | 0.2051     |            |       | 15.50

Nlocal:         144000 ave      144000 max      144000 min
Histogram: 2 0 0 0 0 0 0 0 0 0
Nghost:          10726 ave       10726 max       10726 min
Histogram: 2 0 0 0 0 0 0 0 0 0
Neighs:         507629 ave      507629 max      507629 min
Histogram: 2 0 0 0 0 0 0 0 0 0

Total # of neighbors = 1015258
Ave neighs/atom = 3.5252014
Neighbor list builds = 2
Dangerous builds = 0
Total wall time: 0:00:01
