LAMMPS (7 Jan 2022)
  using 1 OpenMP thread(s) per MPI task
Lattice spacing in x,y,z = 1.6795962 1.6795962 1.6795962
Created orthogonal box = (0 0 0) to (33.591924 33.591924 33.591924)
  1 by 1 by 2 MPI processor grid
Created 32000 atoms
  using lattice units in orthogonal box = (0 0 0) to (33.591924 33.591924 33.591924)
  create_atoms CPU = 0.005 seconds
----------------------------------------------------------
Using INTEL Package without Coprocessor.
Compiler: Intel Classic C++ 20.21.5 / Intel(R) C++ g++ 9.3 mode
SIMD compiler directives: Enabled
Precision: single
----------------------------------------------------------
  generated 0 of 0 mixed pair_coeff terms from geometric mixing rule
Neighbor list info ...
  update every 20 steps, delay 0 steps, check no
  max neighbors/atom: 2000, page size: 100000
  master list distance cutoff = 2.8
  ghost atom cutoff = 2.8
  binsize = 1.4, bins = 24 24 24
  1 neighbor lists, perpetual/occasional/extra = 1 0 0
  (1) pair lj/cut/intel, perpetual
      attributes: half, newton on, intel
      pair build: half/bin/newton/intel
      stencil: half/bin/3d
      bin: intel
Setting up Verlet run ...
  Unit style    : lj
  Current step  : 0
  Time step     : 0.005
Per MPI rank memory allocation (min/avg/max) = 141.1 | 141.1 | 141.1 Mbytes
Step Temp E_pair E_mol TotEng Press 
       0         1.44   -6.7730466            0   -4.6131141   -5.0197031 
     100   0.75745338   -5.7585085            0    -4.622364   0.20725941 
Loop time of 0.30579 on 2 procs for 100 steps with 32000 atoms

Performance: 141273.500 tau/day, 327.022 timesteps/s
97.2% CPU use with 2 MPI tasks x 1 OpenMP threads

MPI task timing breakdown:
Section |  min time  |  avg time  |  max time  |%varavg| %total
---------------------------------------------------------------
Pair    | 0.19469    | 0.22027    | 0.24585    |   5.5 | 72.03
Neigh   | 0.019235   | 0.022194   | 0.025153   |   2.0 |  7.26
Comm    | 0.019593   | 0.049273   | 0.078953   |  13.4 | 16.11
Output  | 4.4049e-05 | 5.1855e-05 | 5.9661e-05 |   0.0 |  0.02
Modify  | 0.0096238  | 0.010564   | 0.011504   |   0.9 |  3.45
Other   |            | 0.00344    |            |       |  1.12

Nlocal:          16000 ave       16001 max       15999 min
Histogram: 1 0 0 0 0 0 0 0 0 1
Nghost:        13632.5 ave       13635 max       13630 min
Histogram: 1 0 0 0 0 0 0 0 0 1
Neighs:         601417 ave      605200 max      597634 min
Histogram: 1 0 0 0 0 0 0 0 0 1

Total # of neighbors = 1202834
Ave neighs/atom = 37.588563
Neighbor list builds = 5
Dangerous builds not checked
Total wall time: 0:00:00
