LAMMPS (7 Jan 2022)
  using 1 OpenMP thread(s) per MPI task
Reading data file ...
  orthogonal box = (-16.796 -16.796 -16.796) to (16.796 16.796 16.796)
  2 by 2 by 2 MPI processor grid
  reading atoms ...
  32000 atoms
  reading velocities ...
  32000 velocities
  scanning bonds ...
  1 = max bonds/atom
  reading bonds ...
  31680 bonds
Finding 1-2 1-3 1-4 neighbors ...
  special bond factors lj:    0        1        1       
  special bond factors coul:  0        1        1       
     2 = max # of 1-2 neighbors
     2 = max # of special neighbors
  special bonds CPU = 0.002 seconds
  read_data CPU = 0.120 seconds
----------------------------------------------------------
Using INTEL Package without Coprocessor.
Compiler: Intel Classic C++ 20.21.5 / Intel(R) C++ g++ 9.3 mode
SIMD compiler directives: Enabled
Precision: double
----------------------------------------------------------
  generated 0 of 0 mixed pair_coeff terms from geometric mixing rule
Neighbor list info ...
  update every 1 steps, delay 1 steps, check yes
  max neighbors/atom: 2000, page size: 100000
  master list distance cutoff = 1.52
  ghost atom cutoff = 1.52
  binsize = 0.76, bins = 45 45 45
  1 neighbor lists, perpetual/occasional/extra = 1 0 0
  (1) pair lj/cut/intel, perpetual
      attributes: half, newton on, intel
      pair build: half/bin/newton/intel
      stencil: half/bin/3d
      bin: intel
Setting up Verlet run ...
  Unit style    : lj
  Current step  : 0
  Time step     : 0.012
WARNING: Communication cutoff 1.52 is shorter than a bond length based estimate of 1.855. This may lead to errors. (../comm.cpp:723)
Per MPI rank memory allocation (min/avg/max) = 38.39 | 38.58 | 38.68 Mbytes
Step Temp E_pair E_mol TotEng Press 
       0   0.97029772   0.44484087    20.494523    22.394765    4.6721833 
     100   0.97261454   0.43907273    20.504318    22.402267    4.6537035 
Loop time of 0.110831 on 8 procs for 100 steps with 32000 atoms

Performance: 935480.725 tau/day, 902.277 timesteps/s
96.5% CPU use with 8 MPI tasks x 1 OpenMP threads

MPI task timing breakdown:
Section |  min time  |  avg time  |  max time  |%varavg| %total
---------------------------------------------------------------
Pair    | 0.020454   | 0.021284   | 0.021988   |   0.3 | 19.20
Bond    | 0.0049542  | 0.0050305  | 0.0054115  |   0.2 |  4.54
Neigh   | 0.031891   | 0.031924   | 0.031966   |   0.0 | 28.80
Comm    | 0.022879   | 0.023468   | 0.024534   |   0.4 | 21.17
Output  | 4.1104e-05 | 4.3737e-05 | 5.2039e-05 |   0.0 |  0.04
Modify  | 0.02472    | 0.02486    | 0.025146   |   0.1 | 22.43
Other   |            | 0.004221   |            |       |  3.81

Nlocal:           4000 ave        4034 max        3967 min
Histogram: 1 0 1 0 3 1 0 1 0 1
Nghost:        2587.88 ave        2624 max        2543 min
Histogram: 1 0 0 1 1 1 2 1 0 1
Neighs:        23440.9 ave       23681 max       23060 min
Histogram: 1 0 0 0 1 0 3 1 1 1

Total # of neighbors = 187527
Ave neighs/atom = 5.8602187
Ave special neighs/atom = 1.98
Neighbor list builds = 25
Dangerous builds = 0
Total wall time: 0:00:00
