LAMMPS (7 Jan 2022)
  using 1 OpenMP thread(s) per MPI task
Reading data file ...
  orthogonal box = (0 0 0) to (40 20 37.2886)
  4 by 2 by 2 MPI processor grid
  reading atoms ...
  32000 atoms
  reading velocities ...
  32000 velocities
  read_data CPU = 0.099 seconds
912 atoms in group bottom
31088 atoms in group active
  generated 0 of 1 mixed pair_coeff terms from geometric mixing rule
Neighbor list info ...
  update every 1 steps, delay 0 steps, check yes
  max neighbors/atom: 2000, page size: 100000
  master list distance cutoff = 1.1
  ghost atom cutoff = 1.1
  binsize = 0.55, bins = 73 37 68
  1 neighbor lists, perpetual/occasional/extra = 1 0 0
  (1) pair gran/hooke/history, perpetual
      attributes: half, newton off, size, history
      pair build: half/size/bin/newtoff
      stencil: full/bin/3d
      bin: standard
Setting up Verlet run ...
  Unit style    : lj
  Current step  : 0
  Time step     : 0.0001
Per MPI rank memory allocation (min/avg/max) = 10.17 | 10.17 | 10.18 Mbytes
Step Atoms KinEng c_1 Volume 
       0    32000    784139.13    1601.1263    29833.783 
     100    32000    784292.08    1571.0968    29834.707 
     200    32000    784422.71    1573.8634     29836.23 
     300    32000    784563.48    1580.4742    29837.727 
     400    32000    784708.17    1572.2381     29839.15 
     500    32000    784831.77    1564.0479    29840.694 
     600    32000    784971.37    1564.4511    29842.232 
Loop time of 0.157582 on 16 procs for 600 steps with 32000 atoms

Performance: 32897.213 tau/day, 3807.548 timesteps/s
98.6% CPU use with 16 MPI tasks x 1 OpenMP threads

MPI task timing breakdown:
Section |  min time  |  avg time  |  max time  |%varavg| %total
---------------------------------------------------------------
Pair    | 0.049643   | 0.057658   | 0.064733   |   2.9 | 36.59
Neigh   | 0.024575   | 0.02507    | 0.025694   |   0.2 | 15.91
Comm    | 0.03031    | 0.032259   | 0.0341     |   0.6 | 20.47
Output  | 0.00021514 | 0.0002863  | 0.0003513  |   0.0 |  0.18
Modify  | 0.024982   | 0.025117   | 0.025433   |   0.1 | 15.94
Other   |            | 0.01719    |            |       | 10.91

Nlocal:           2000 ave        2009 max        1995 min
Histogram: 8 0 0 2 2 0 0 0 0 4
Nghost:        1148.38 ave        1164 max        1131 min
Histogram: 4 0 0 0 1 6 1 0 0 4
Neighs:        7719.31 ave        7991 max        7428 min
Histogram: 4 4 0 0 0 0 0 0 0 8

Total # of neighbors = 123509
Ave neighs/atom = 3.8596563
Neighbor list builds = 17
Dangerous builds = 0
Total wall time: 0:00:00
