LAMMPS (7 Jan 2022)
  using 1 OpenMP thread(s) per MPI task
Lattice spacing in x,y,z = 1.6795962 1.6795962 1.6795962
Created orthogonal box = (0 0 0) to (33.591924 33.591924 33.591924)
  2 by 2 by 4 MPI processor grid
Created 32000 atoms
  using lattice units in orthogonal box = (0 0 0) to (33.591924 33.591924 33.591924)
  create_atoms CPU = 0.002 seconds
----------------------------------------------------------
Using INTEL Package without Coprocessor.
Compiler: Intel Classic C++ 20.21.5 / Intel(R) C++ g++ 9.3 mode
SIMD compiler directives: Enabled
Precision: double
----------------------------------------------------------
  generated 0 of 0 mixed pair_coeff terms from geometric mixing rule
Neighbor list info ...
  update every 20 steps, delay 0 steps, check no
  max neighbors/atom: 2000, page size: 100000
  master list distance cutoff = 2.8
  ghost atom cutoff = 2.8
  binsize = 1.4, bins = 24 24 24
  1 neighbor lists, perpetual/occasional/extra = 1 0 0
  (1) pair lj/cut/intel, perpetual
      attributes: half, newton on, intel
      pair build: half/bin/newton/intel
      stencil: half/bin/3d
      bin: intel
Setting up Verlet run ...
  Unit style    : lj
  Current step  : 0
  Time step     : 0.005
Per MPI rank memory allocation (min/avg/max) = 18.36 | 20.05 | 21.72 Mbytes
Step Temp E_pair E_mol TotEng Press 
       0         1.44   -6.7733681            0   -4.6134356   -5.0197073 
     100    0.7574531   -5.7585055            0   -4.6223613   0.20726105 
Loop time of 0.0859644 on 16 procs for 100 steps with 32000 atoms

Performance: 502533.315 tau/day, 1163.272 timesteps/s
86.2% CPU use with 16 MPI tasks x 1 OpenMP threads

MPI task timing breakdown:
Section |  min time  |  avg time  |  max time  |%varavg| %total
---------------------------------------------------------------
Pair    | 0.02865    | 0.03357    | 0.066707   |   4.8 | 39.05
Neigh   | 0.003771   | 0.0039055  | 0.0040754  |   0.1 |  4.54
Comm    | 0.012558   | 0.045917   | 0.050817   |   4.2 | 53.41
Output  | 4.1605e-05 | 0.0001255  | 0.00038075 |   0.0 |  0.15
Modify  | 0.0017364  | 0.0019377  | 0.0022365  |   0.3 |  2.25
Other   |            | 0.0005082  |            |       |  0.59

Nlocal:           2000 ave        2035 max        1966 min
Histogram: 2 0 3 1 3 1 2 2 0 2
Nghost:        4132.62 ave        4176 max        4094 min
Histogram: 2 1 1 3 1 4 1 1 0 2
Neighs:        75177.1 ave       78045 max       73432 min
Histogram: 4 3 0 1 0 5 1 1 0 1

Total # of neighbors = 1202833
Ave neighs/atom = 37.588531
Neighbor list builds = 5
Dangerous builds not checked
Total wall time: 0:00:00
