LAMMPS (7 Jan 2022)
  using 1 OpenMP thread(s) per MPI task
Lattice spacing in x,y,z = 1.6795962 1.6795962 1.6795962
Created orthogonal box = (0 0 0) to (100.77577 100.77577 100.77577)
  1 by 2 by 2 MPI processor grid
Created 864000 atoms
  using lattice units in orthogonal box = (0 0 0) to (100.77577 100.77577 100.77577)
  create_atoms CPU = 0.039 seconds
----------------------------------------------------------
Using INTEL Package without Coprocessor.
Compiler: Intel Classic C++ 20.21.5 / Intel(R) C++ g++ 9.3 mode
SIMD compiler directives: Enabled
Precision: single
----------------------------------------------------------
  generated 0 of 0 mixed pair_coeff terms from geometric mixing rule
Neighbor list info ...
  update every 20 steps, delay 0 steps, check no
  max neighbors/atom: 2000, page size: 100000
  master list distance cutoff = 2.8
  ghost atom cutoff = 2.8
  binsize = 1.4, bins = 72 72 72
  1 neighbor lists, perpetual/occasional/extra = 1 0 0
  (1) pair lj/cut/intel, perpetual
      attributes: half, newton on, intel
      pair build: half/bin/newton/intel
      stencil: half/bin/3d
      bin: intel
Setting up Verlet run ...
  Unit style    : lj
  Current step  : 0
  Time step     : 0.005
Per MPI rank memory allocation (min/avg/max) = 1867 | 1867 | 1867 Mbytes
Step Temp E_pair E_mol TotEng Press 
       0         1.44   -6.7754842            0   -4.6154867   -5.0196609 
     100   0.75926564   -5.7612148            0   -4.6223177   0.19242965 
Loop time of 3.37494 on 4 procs for 100 steps with 864000 atoms

Performance: 12800.212 tau/day, 29.630 timesteps/s
99.8% CPU use with 4 MPI tasks x 1 OpenMP threads

MPI task timing breakdown:
Section |  min time  |  avg time  |  max time  |%varavg| %total
---------------------------------------------------------------
Pair    | 2.6868     | 2.6932     | 2.6992     |   0.3 | 79.80
Neigh   | 0.24073    | 0.24135    | 0.24177    |   0.1 |  7.15
Comm    | 0.18239    | 0.19546    | 0.20958    |   2.8 |  5.79
Output  | 0.00053311 | 0.00055826 | 0.00057739 |   0.0 |  0.02
Modify  | 0.19739    | 0.20588    | 0.21542    |   1.8 |  6.10
Other   |            | 0.03848    |            |       |  1.14

Nlocal:         216000 ave      216065 max      215874 min
Histogram: 1 0 0 0 0 0 0 1 1 1
Nghost:        68177.5 ave       68283 max       68103 min
Histogram: 1 0 1 0 1 0 0 0 0 1
Neighs:    8.11244e+06 ave 8.13507e+06 max 8.09529e+06 min
Histogram: 1 0 1 0 1 0 0 0 0 1

Total # of neighbors = 32449779
Ave neighs/atom = 37.557615
Neighbor list builds = 5
Dangerous builds not checked
Total wall time: 0:00:03
