LAMMPS (7 Jan 2022)
  using 1 OpenMP thread(s) per MPI task
Reading data file ...
  orthogonal box = (-27.5 -38.5 -36.3646) to (27.5 38.5 36.3615)
  1 by 2 by 1 MPI processor grid
  reading atoms ...
  32000 atoms
  reading velocities ...
  32000 velocities
  scanning bonds ...
  4 = max bonds/atom
  scanning angles ...
  8 = max angles/atom
  scanning dihedrals ...
  18 = max dihedrals/atom
  scanning impropers ...
  2 = max impropers/atom
  reading bonds ...
  27723 bonds
  reading angles ...
  40467 angles
  reading dihedrals ...
  56829 dihedrals
  reading impropers ...
  1034 impropers
Finding 1-2 1-3 1-4 neighbors ...
  special bond factors lj:    0        0        0       
  special bond factors coul:  0        0        0       
     4 = max # of 1-2 neighbors
    12 = max # of 1-3 neighbors
    24 = max # of 1-4 neighbors
    26 = max # of special neighbors
  special bonds CPU = 0.007 seconds
  read_data CPU = 0.221 seconds
Finding SHAKE clusters ...
    1617 = # of size 2 clusters
    3633 = # of size 3 clusters
     747 = # of size 4 clusters
    4233 = # of frozen angles
  find clusters CPU = 0.004 seconds
PPPM initialization ...
  using 12-bit tables for long-range coulomb (../kspace.cpp:340)
  G vector (1/distance) = 0.29817009
  grid = 36 45 45
  stencil order = 7
  estimated absolute RMS force accuracy = 0.0023869977
  estimated relative force accuracy = 7.1883728e-06
  using single precision MKL FFT
  3d grid and FFT values/proc = 75330 37260
----------------------------------------------------------
Using INTEL Package without Coprocessor.
Compiler: Intel Classic C++ 20.21.5 / Intel(R) C++ g++ 9.3 mode
SIMD compiler directives: Enabled
Precision: mixed
----------------------------------------------------------
  generated 2278 of 2278 mixed pair_coeff terms from arithmetic mixing rule
Neighbor list info ...
  update every 1 steps, delay 5 steps, check yes
  max neighbors/atom: 2000, page size: 100000
  master list distance cutoff = 12
  ghost atom cutoff = 12
  binsize = 6, bins = 10 13 13
  1 neighbor lists, perpetual/occasional/extra = 1 0 0
  (1) pair lj/charmm/coul/long/intel, perpetual
      attributes: half, newton on, intel
      pair build: half/bin/newton/intel
      stencil: half/bin/3d
      bin: intel
Setting up Verlet run ...
  Unit style    : real
  Current step  : 0
  Time step     : 2
Per MPI rank memory allocation (min/avg/max) = 213.2 | 213.9 | 214.7 Mbytes
---------------- Step        0 ----- CPU =      0.0000 (sec) ----------------
TotEng   =    -25359.0690 KinEng   =     21444.8313 Temp     =       299.0397 
PotEng   =    -46803.9003 E_bond   =      2537.9949 E_angle  =     10921.3721 
E_dihed  =      5211.7865 E_impro  =       213.5135 E_vdwl   =     -2307.8639 
E_coul   =    260369.1642 E_long   =   -323749.8676 Press    =      -152.6956 
Volume   =    307995.0335 
---------------- Step       50 ----- CPU =      1.9886 (sec) ----------------
TotEng   =    -25333.5253 KinEng   =     21500.7943 Temp     =       299.8201 
PotEng   =    -46834.3196 E_bond   =      2471.6491 E_angle  =     10836.6231 
E_dihed  =      5239.4687 E_impro  =       227.1414 E_vdwl   =     -1992.6738 
E_coul   =    260144.9036 E_long   =   -323761.4318 Press    =       234.8476 
Volume   =    308031.1148 
---------------- Step      100 ----- CPU =      3.7654 (sec) ----------------
TotEng   =    -25289.8971 KinEng   =     21589.1898 Temp     =       301.0527 
PotEng   =    -46879.0869 E_bond   =      2567.7882 E_angle  =     10781.3708 
E_dihed  =      5198.5164 E_impro  =       216.7740 E_vdwl   =     -1900.7748 
E_coul   =    260012.3684 E_long   =   -323755.1298 Press    =        12.3649 
Volume   =    308132.5014 
---------------- Step      150 ----- CPU =      5.5394 (sec) ----------------
TotEng   =    -25257.7276 KinEng   =     21549.9625 Temp     =       300.5057 
PotEng   =    -46807.6901 E_bond   =      2555.5277 E_angle  =     10855.7824 
E_dihed  =      5263.9575 E_impro  =       203.1031 E_vdwl   =     -2064.3762 
E_coul   =    260118.5100 E_long   =   -323740.1947 Press    =       246.0514 
Volume   =    308515.0548 
---------------- Step      200 ----- CPU =      7.2777 (sec) ----------------
TotEng   =    -25061.3572 KinEng   =     21488.9784 Temp     =       299.6553 
PotEng   =    -46550.3356 E_bond   =      2493.6049 E_angle  =     11072.1213 
E_dihed  =      5224.8103 E_impro  =       232.1016 E_vdwl   =     -2107.8840 
E_coul   =    260293.6893 E_long   =   -323758.7791 Press    =       108.7053 
Volume   =    308994.3210 
---------------- Step      250 ----- CPU =      9.0427 (sec) ----------------
TotEng   =    -24886.9715 KinEng   =     21546.0450 Temp     =       300.4511 
PotEng   =    -46433.0165 E_bond   =      2556.2873 E_angle  =     11114.6618 
E_dihed  =      5251.4454 E_impro  =       221.0775 E_vdwl   =     -2160.3825 
E_coul   =    260344.1770 E_long   =   -323760.2829 Press    =      -144.9120 
Volume   =    309423.2205 
---------------- Step      300 ----- CPU =     10.7768 (sec) ----------------
TotEng   =    -24897.0931 KinEng   =     21554.9827 Temp     =       300.5757 
PotEng   =    -46452.0758 E_bond   =      2567.5790 E_angle  =     10908.6267 
E_dihed  =      5221.4998 E_impro  =       224.0645 E_vdwl   =     -2167.4287 
E_coul   =    260522.3183 E_long   =   -323728.7355 Press    =      -377.5597 
Volume   =    309815.6091 
---------------- Step      350 ----- CPU =     12.5089 (sec) ----------------
TotEng   =    -25090.8465 KinEng   =     21530.8841 Temp     =       300.2396 
PotEng   =    -46621.7306 E_bond   =      2580.6575 E_angle  =     10976.3301 
E_dihed  =      5204.4092 E_impro  =       209.5853 E_vdwl   =     -2089.3933 
E_coul   =    260245.2283 E_long   =   -323748.5476 Press    =      -338.5839 
Volume   =    310123.2796 
---------------- Step      400 ----- CPU =     14.2652 (sec) ----------------
TotEng   =    -25305.5709 KinEng   =     21444.2608 Temp     =       299.0317 
PotEng   =    -46749.8317 E_bond   =      2526.2365 E_angle  =     10955.2349 
E_dihed  =      5166.3925 E_impro  =       218.4314 E_vdwl   =     -2173.9329 
E_coul   =    260324.4707 E_long   =   -323766.6648 Press    =       179.5469 
Volume   =    310264.2509 
---------------- Step      450 ----- CPU =     16.0215 (sec) ----------------
TotEng   =    -25394.6011 KinEng   =     21430.5913 Temp     =       298.8411 
PotEng   =    -46825.1924 E_bond   =      2511.7939 E_angle  =     10775.9087 
E_dihed  =      5284.3874 E_impro  =       224.4465 E_vdwl   =     -2031.1845 
E_coul   =    260148.8401 E_long   =   -323739.3845 Press    =       320.4316 
Volume   =    310327.2011 
---------------- Step      500 ----- CPU =     17.7493 (sec) ----------------
TotEng   =    -25120.5365 KinEng   =     21453.8685 Temp     =       299.1657 
PotEng   =    -46574.4051 E_bond   =      2599.1095 E_angle  =     10877.9333 
E_dihed  =      5239.1207 E_impro  =       209.9023 E_vdwl   =     -2282.5112 
E_coul   =    260513.4700 E_long   =   -323731.4296 Press    =      -319.8969 
Volume   =    310347.0129 
---------------- Step      550 ----- CPU =     19.4771 (sec) ----------------
TotEng   =    -24771.1433 KinEng   =     21730.8689 Temp     =       303.0284 
PotEng   =    -46502.0121 E_bond   =      2556.8288 E_angle  =     10974.4552 
E_dihed  =      5188.5590 E_impro  =       240.2785 E_vdwl   =     -2094.5605 
E_coul   =    260391.2745 E_long   =   -323758.8477 Press    =       172.9136 
Volume   =    310324.6190 
---------------- Step      600 ----- CPU =     21.2360 (sec) ----------------
TotEng   =    -24661.5276 KinEng   =     21636.3275 Temp     =       301.7100 
PotEng   =    -46297.8551 E_bond   =      2576.8571 E_angle  =     11084.9900 
E_dihed  =      5241.5761 E_impro  =       230.7916 E_vdwl   =     -2218.0489 
E_coul   =    260539.4226 E_long   =   -323753.4435 Press    =      -103.3507 
Volume   =    310324.5808 
Loop time of 21.2361 on 2 procs for 600 steps with 32000 atoms

Performance: 4.882 ns/day, 4.916 hours/ns, 28.254 timesteps/s
99.4% CPU use with 2 MPI tasks x 1 OpenMP threads

MPI task timing breakdown:
Section |  min time  |  avg time  |  max time  |%varavg| %total
---------------------------------------------------------------
Pair    | 12.801     | 13.001     | 13.201     |   5.5 | 61.22
Bond    | 0.75091    | 0.78019    | 0.80948    |   3.3 |  3.67
Kspace  | 2.7845     | 3.0145     | 3.2445     |  13.2 | 14.20
Neigh   | 1.6059     | 1.606      | 1.6061     |   0.0 |  7.56
Comm    | 0.42279    | 0.44822    | 0.47366    |   3.8 |  2.11
Output  | 0.00066443 | 0.00078237 | 0.00090031 |   0.0 |  0.00
Modify  | 2.2402     | 2.2985     | 2.3567     |   3.8 | 10.82
Other   |            | 0.08702    |            |       |  0.41

Nlocal:          16000 ave       16038 max       15962 min
Histogram: 1 0 0 0 0 0 0 0 0 1
Nghost:          33267 ave       33345 max       33189 min
Histogram: 1 0 0 0 0 0 0 0 0 1
Neighs:    5.97281e+06 ave 5.99691e+06 max 5.94872e+06 min
Histogram: 1 0 0 0 0 0 0 0 0 1

Total # of neighbors = 11945629
Ave neighs/atom = 373.30091
Ave special neighs/atom = 7.431875
Neighbor list builds = 66
Dangerous builds = 0
Total wall time: 0:00:21
