LAMMPS (7 Jan 2022)
  using 1 OpenMP thread(s) per MPI task
Reading data file ...
  orthogonal box = (-27.5 -38.5 -36.3646) to (27.5 38.5 36.3615)
  1 by 2 by 2 MPI processor grid
  reading atoms ...
  32000 atoms
  reading velocities ...
  32000 velocities
  scanning bonds ...
  4 = max bonds/atom
  scanning angles ...
  8 = max angles/atom
  scanning dihedrals ...
  18 = max dihedrals/atom
  scanning impropers ...
  2 = max impropers/atom
  reading bonds ...
  27723 bonds
  reading angles ...
  40467 angles
  reading dihedrals ...
  56829 dihedrals
  reading impropers ...
  1034 impropers
Finding 1-2 1-3 1-4 neighbors ...
  special bond factors lj:    0        0        0       
  special bond factors coul:  0        0        0       
     4 = max # of 1-2 neighbors
    12 = max # of 1-3 neighbors
    24 = max # of 1-4 neighbors
    26 = max # of special neighbors
  special bonds CPU = 0.004 seconds
  read_data CPU = 0.212 seconds
Finding SHAKE clusters ...
    1617 = # of size 2 clusters
    3633 = # of size 3 clusters
     747 = # of size 4 clusters
    4233 = # of frozen angles
  find clusters CPU = 0.002 seconds
PPPM initialization ...
  using 12-bit tables for long-range coulomb (../kspace.cpp:340)
  G vector (1/distance) = 0.29817009
  grid = 36 45 45
  stencil order = 7
  estimated absolute RMS force accuracy = 0.0023869977
  estimated relative force accuracy = 7.1883728e-06
  using single precision MKL FFT
  3d grid and FFT values/proc = 43245 19440
----------------------------------------------------------
Using INTEL Package without Coprocessor.
Compiler: Intel Classic C++ 20.21.5 / Intel(R) C++ g++ 9.3 mode
SIMD compiler directives: Enabled
Precision: mixed
----------------------------------------------------------
  generated 2278 of 2278 mixed pair_coeff terms from arithmetic mixing rule
Neighbor list info ...
  update every 1 steps, delay 5 steps, check yes
  max neighbors/atom: 2000, page size: 100000
  master list distance cutoff = 12
  ghost atom cutoff = 12
  binsize = 6, bins = 10 13 13
  1 neighbor lists, perpetual/occasional/extra = 1 0 0
  (1) pair lj/charmm/coul/long/intel, perpetual
      attributes: half, newton on, intel
      pair build: half/bin/newton/intel
      stencil: half/bin/3d
      bin: intel
Setting up Verlet run ...
  Unit style    : real
  Current step  : 0
  Time step     : 2
Per MPI rank memory allocation (min/avg/max) = 107.8 | 108.4 | 109.5 Mbytes
---------------- Step        0 ----- CPU =      0.0000 (sec) ----------------
TotEng   =    -25359.0690 KinEng   =     21444.8313 Temp     =       299.0397 
PotEng   =    -46803.9003 E_bond   =      2537.9949 E_angle  =     10921.3721 
E_dihed  =      5211.7865 E_impro  =       213.5135 E_vdwl   =     -2307.8639 
E_coul   =    260369.1642 E_long   =   -323749.8676 Press    =      -152.6956 
Volume   =    307995.0335 
---------------- Step       50 ----- CPU =      1.1435 (sec) ----------------
TotEng   =    -25333.5246 KinEng   =     21500.7923 Temp     =       299.8200 
PotEng   =    -46834.3170 E_bond   =      2471.6528 E_angle  =     10836.6289 
E_dihed  =      5239.4668 E_impro  =       227.1396 E_vdwl   =     -1992.6723 
E_coul   =    260144.9020 E_long   =   -323761.4347 Press    =       234.8778 
Volume   =    308031.1150 
---------------- Step      100 ----- CPU =      2.3026 (sec) ----------------
TotEng   =    -25289.9116 KinEng   =     21589.2073 Temp     =       301.0529 
PotEng   =    -46879.1188 E_bond   =      2567.7745 E_angle  =     10781.3608 
E_dihed  =      5198.5129 E_impro  =       216.7850 E_vdwl   =     -1900.7726 
E_coul   =    260012.3481 E_long   =   -323755.1275 Press    =        12.3365 
Volume   =    308132.5014 
---------------- Step      150 ----- CPU =      3.2579 (sec) ----------------
TotEng   =    -25257.7589 KinEng   =     21549.9134 Temp     =       300.5050 
PotEng   =    -46807.6723 E_bond   =      2555.5174 E_angle  =     10855.7981 
E_dihed  =      5263.9627 E_impro  =       203.0914 E_vdwl   =     -2064.3835 
E_coul   =    260118.5254 E_long   =   -323740.1838 Press    =       246.0296 
Volume   =    308515.0596 
---------------- Step      200 ----- CPU =      4.1639 (sec) ----------------
TotEng   =    -25061.2645 KinEng   =     21488.8747 Temp     =       299.6538 
PotEng   =    -46550.1392 E_bond   =      2493.5769 E_angle  =     11072.1220 
E_dihed  =      5224.8232 E_impro  =       232.1015 E_vdwl   =     -2107.8982 
E_coul   =    260293.8756 E_long   =   -323758.7401 Press    =       108.6483 
Volume   =    308994.3165 
---------------- Step      250 ----- CPU =      5.0829 (sec) ----------------
TotEng   =    -24886.8936 KinEng   =     21545.7682 Temp     =       300.4472 
PotEng   =    -46432.6618 E_bond   =      2556.3016 E_angle  =     11114.7802 
E_dihed  =      5251.3838 E_impro  =       221.0777 E_vdwl   =     -2160.6487 
E_coul   =    260344.7724 E_long   =   -323760.3288 Press    =      -145.0086 
Volume   =    309423.0531 
---------------- Step      300 ----- CPU =      5.9846 (sec) ----------------
TotEng   =    -24897.8584 KinEng   =     21557.8990 Temp     =       300.6164 
PotEng   =    -46455.7574 E_bond   =      2567.5947 E_angle  =     10908.7611 
E_dihed  =      5221.3604 E_impro  =       224.0579 E_vdwl   =     -2168.3941 
E_coul   =    260520.0233 E_long   =   -323729.1607 Press    =      -378.5734 
Volume   =    309815.1496 
---------------- Step      350 ----- CPU =      6.9010 (sec) ----------------
TotEng   =    -25093.7050 KinEng   =     21541.8738 Temp     =       300.3929 
PotEng   =    -46635.5788 E_bond   =      2580.7322 E_angle  =     10976.8285 
E_dihed  =      5203.9547 E_impro  =       209.5759 E_vdwl   =     -2086.8958 
E_coul   =    260226.8299 E_long   =   -323746.6042 Press    =      -343.9710 
Volume   =    310123.4196 
---------------- Step      400 ----- CPU =      7.8009 (sec) ----------------
TotEng   =    -25332.2349 KinEng   =     21448.8187 Temp     =       299.0953 
PotEng   =    -46781.0535 E_bond   =      2522.9307 E_angle  =     10949.3762 
E_dihed  =      5168.0176 E_impro  =       218.2865 E_vdwl   =     -2135.8616 
E_coul   =    260262.8761 E_long   =   -323766.6789 Press    =       206.9175 
Volume   =    310262.9300 
---------------- Step      450 ----- CPU =      8.7003 (sec) ----------------
TotEng   =    -25466.1671 KinEng   =     21458.0570 Temp     =       299.2241 
PotEng   =    -46924.2241 E_bond   =      2507.1101 E_angle  =     10759.4388 
E_dihed  =      5281.3627 E_impro  =       224.1335 E_vdwl   =     -2090.9948 
E_coul   =    260143.8313 E_long   =   -323749.1057 Press    =       268.6273 
Volume   =    310346.9194 
---------------- Step      500 ----- CPU =      9.6150 (sec) ----------------
TotEng   =    -25202.8554 KinEng   =     21429.3833 Temp     =       298.8243 
PotEng   =    -46632.2387 E_bond   =      2598.5013 E_angle  =     10862.3207 
E_dihed  =      5241.3363 E_impro  =       211.0745 E_vdwl   =     -2271.7897 
E_coul   =    260478.7716 E_long   =   -323752.4534 Press    =      -272.0601 
Volume   =    310376.5605 
---------------- Step      550 ----- CPU =     10.5154 (sec) ----------------
TotEng   =    -24803.5615 KinEng   =     21681.8714 Temp     =       302.3451 
PotEng   =    -46485.4329 E_bond   =      2558.1086 E_angle  =     10942.4735 
E_dihed  =      5188.1263 E_impro  =       245.3187 E_vdwl   =     -1970.8525 
E_coul   =    260285.8753 E_long   =   -323734.4828 Press    =       283.8649 
Volume   =    310312.9412 
---------------- Step      600 ----- CPU =     11.4306 (sec) ----------------
TotEng   =    -24636.5693 KinEng   =     21719.9816 Temp     =       302.8765 
PotEng   =    -46356.5509 E_bond   =      2555.6990 E_angle  =     11096.7231 
E_dihed  =      5231.1709 E_impro  =       230.1349 E_vdwl   =     -2048.3433 
E_coul   =    260328.7328 E_long   =   -323750.6681 Press    =        77.0040 
Volume   =    310328.1563 
Loop time of 11.4307 on 4 procs for 600 steps with 32000 atoms

Performance: 9.070 ns/day, 2.646 hours/ns, 52.490 timesteps/s
98.9% CPU use with 4 MPI tasks x 1 OpenMP threads

MPI task timing breakdown:
Section |  min time  |  avg time  |  max time  |%varavg| %total
---------------------------------------------------------------
Pair    | 6.4384     | 6.6661     | 6.9281     |   7.3 | 58.32
Bond    | 0.37771    | 0.39817    | 0.41442    |   2.3 |  3.48
Kspace  | 1.6174     | 1.889      | 2.0995     |  13.7 | 16.53
Neigh   | 0.8396     | 0.83997    | 0.84031    |   0.0 |  7.35
Comm    | 0.30371    | 0.33618    | 0.35401    |   3.5 |  2.94
Output  | 0.00058942 | 0.00065874 | 0.00086286 |   0.0 |  0.01
Modify  | 1.1851     | 1.2291     | 1.3039     |   4.2 | 10.75
Other   |            | 0.07141    |            |       |  0.62

Nlocal:           8000 ave        8089 max        7900 min
Histogram: 1 0 0 1 0 0 0 1 0 1
Nghost:        22640.8 ave       22725 max       22542 min
Histogram: 1 0 0 1 0 0 0 1 0 1
Neighs:    2.98639e+06 ave 3.03676e+06 max 2.92863e+06 min
Histogram: 1 0 0 1 0 0 0 0 1 1

Total # of neighbors = 11945559
Ave neighs/atom = 373.29872
Ave special neighs/atom = 7.431875
Neighbor list builds = 66
Dangerous builds = 0
Total wall time: 0:00:11
