LAMMPS (7 Jan 2022)
  using 1 OpenMP thread(s) per MPI task
Reading data file ...
  orthogonal box = (-27.5 -38.5 -36.3646) to (27.5 38.5 36.3615)
  2 by 2 by 2 MPI processor grid
  reading atoms ...
  32000 atoms
  reading velocities ...
  32000 velocities
  scanning bonds ...
  4 = max bonds/atom
  scanning angles ...
  8 = max angles/atom
  scanning dihedrals ...
  18 = max dihedrals/atom
  scanning impropers ...
  2 = max impropers/atom
  reading bonds ...
  27723 bonds
  reading angles ...
  40467 angles
  reading dihedrals ...
  56829 dihedrals
  reading impropers ...
  1034 impropers
Finding 1-2 1-3 1-4 neighbors ...
  special bond factors lj:    0        0        0       
  special bond factors coul:  0        0        0       
     4 = max # of 1-2 neighbors
    12 = max # of 1-3 neighbors
    24 = max # of 1-4 neighbors
    26 = max # of special neighbors
  special bonds CPU = 0.004 seconds
  read_data CPU = 0.206 seconds
Replicating atoms ...
  orthogonal box = (-27.5 -38.5 -36.3646) to (137.5 192.5 181.8137)
  2 by 2 by 2 MPI processor grid
  864000 atoms
  748521 bonds
  1092609 angles
  1534383 dihedrals
  27918 impropers
Finding 1-2 1-3 1-4 neighbors ...
  special bond factors lj:    0        0        0       
  special bond factors coul:  0        0        0       
     4 = max # of 1-2 neighbors
    12 = max # of 1-3 neighbors
    24 = max # of 1-4 neighbors
    26 = max # of special neighbors
  special bonds CPU = 0.089 seconds
  replicate CPU = 0.183 seconds
Finding SHAKE clusters ...
   43659 = # of size 2 clusters
   98091 = # of size 3 clusters
   20169 = # of size 4 clusters
  114291 = # of frozen angles
  find clusters CPU = 0.037 seconds
PPPM initialization ...
  using 12-bit tables for long-range coulomb (../kspace.cpp:340)
  G vector (1/distance) = 0.32786357
  grid = 144 180 180
  stencil order = 7
  estimated absolute RMS force accuracy = 0.00036845542
  estimated relative force accuracy = 1.1095925e-06
  using single precision MKL FFT
  3d grid and FFT values/proc = 793881 596160
----------------------------------------------------------
Using INTEL Package without Coprocessor.
Compiler: Intel Classic C++ 20.21.5 / Intel(R) C++ g++ 9.3 mode
SIMD compiler directives: Enabled
Precision: mixed
----------------------------------------------------------
  generated 2278 of 2278 mixed pair_coeff terms from arithmetic mixing rule
Neighbor list info ...
  update every 1 steps, delay 5 steps, check yes
  max neighbors/atom: 2000, page size: 100000
  master list distance cutoff = 12
  ghost atom cutoff = 12
  binsize = 6, bins = 28 39 37
  1 neighbor lists, perpetual/occasional/extra = 1 0 0
  (1) pair lj/charmm/coul/long/intel, perpetual
      attributes: half, newton on, intel
      pair build: half/bin/newton/intel
      stencil: half/bin/3d
      bin: intel
Setting up Verlet run ...
  Unit style    : real
  Current step  : 0
  Time step     : 2
Per MPI rank memory allocation (min/avg/max) = 1215 | 1219 | 1224 Mbytes
---------------- Step        0 ----- CPU =      0.0000 (sec) ----------------
TotEng   =   -684697.6037 KinEng   =    579010.4447 Temp     =       299.0277 
PotEng   =  -1263708.0484 E_bond   =     68525.6859 E_angle  =    294877.1223 
E_dihed  =    140718.2350 E_impro  =      5764.8965 E_vdwl   =    -62312.3838 
E_coul   =   7893502.4206 E_long   =  -9604784.0248 Press    =      -152.9376 
Volume   =   8315865.9045 
---------------- Step       50 ----- CPU =     15.9408 (sec) ----------------
TotEng   =   -683988.4504 KinEng   =    580535.3410 Temp     =       299.8152 
PotEng   =  -1264523.7913 E_bond   =     66734.6986 E_angle  =    292593.2640 
E_dihed  =    141466.0032 E_impro  =      6132.8696 E_vdwl   =    -53797.6591 
E_coul   =   7887554.5826 E_long   =  -9605207.5503 Press    =       234.8053 
Volume   =   8316840.1308 
---------------- Step      100 ----- CPU =     31.7658 (sec) ----------------
TotEng   =   -682768.5550 KinEng   =    582976.5003 Temp     =       301.0760 
PotEng   =  -1265745.0554 E_bond   =     69332.5107 E_angle  =    291105.9627 
E_dihed  =    140361.4792 E_impro  =      5853.1887 E_vdwl   =    -51308.1762 
E_coul   =   7883951.2402 E_long   =  -9605041.2607 Press    =        12.2707 
Volume   =   8319578.3273 
Loop time of 31.7659 on 8 procs for 100 steps with 864000 atoms

Performance: 0.544 ns/day, 44.119 hours/ns, 3.148 timesteps/s
99.0% CPU use with 8 MPI tasks x 1 OpenMP threads

MPI task timing breakdown:
Section |  min time  |  avg time  |  max time  |%varavg| %total
---------------------------------------------------------------
Pair    | 14.654     | 14.805     | 15.058     |   3.6 | 46.61
Bond    | 0.89159    | 0.90344    | 0.91344    |   0.8 |  2.84
Kspace  | 7.2987     | 7.5588     | 7.719      |   5.1 | 23.80
Neigh   | 1.7997     | 1.8005     | 1.802      |   0.1 |  5.67
Comm    | 0.82184    | 0.89998    | 0.96811    |   6.6 |  2.83
Output  | 0.00040143 | 0.00042455 | 0.00047976 |   0.0 |  0.00
Modify  | 5.5125     | 5.6457     | 5.7939     |   5.0 | 17.77
Other   |            | 0.1521     |            |       |  0.48

Nlocal:         108000 ave      108537 max      107589 min
Histogram: 1 2 0 1 2 0 0 0 1 1
Nghost:        96692.5 ave       97123 max       96241 min
Histogram: 1 0 0 3 1 0 0 1 0 2
Neighs:    4.05949e+07 ave 4.09107e+07 max 4.03619e+07 min
Histogram: 1 2 0 1 2 0 0 0 0 2

Total # of neighbors = 3.2475891e+08
Ave neighs/atom = 375.87836
Ave special neighs/atom = 7.431875
Neighbor list builds = 11
Dangerous builds = 0
Total wall time: 0:00:33
