LAMMPS (7 Jan 2022)
  using 1 OpenMP thread(s) per MPI task
Reading data file ...
  orthogonal box = (-27.5 -38.5 -36.3646) to (27.5 38.5 36.3615)
  2 by 2 by 2 MPI processor grid
  reading atoms ...
  32000 atoms
  reading velocities ...
  32000 velocities
  scanning bonds ...
  4 = max bonds/atom
  scanning angles ...
  8 = max angles/atom
  scanning dihedrals ...
  18 = max dihedrals/atom
  scanning impropers ...
  2 = max impropers/atom
  reading bonds ...
  27723 bonds
  reading angles ...
  40467 angles
  reading dihedrals ...
  56829 dihedrals
  reading impropers ...
  1034 impropers
Finding 1-2 1-3 1-4 neighbors ...
  special bond factors lj:    0        0        0       
  special bond factors coul:  0        0        0       
     4 = max # of 1-2 neighbors
    12 = max # of 1-3 neighbors
    24 = max # of 1-4 neighbors
    26 = max # of special neighbors
  special bonds CPU = 0.003 seconds
  read_data CPU = 0.189 seconds
Finding SHAKE clusters ...
    1617 = # of size 2 clusters
    3633 = # of size 3 clusters
     747 = # of size 4 clusters
    4233 = # of frozen angles
  find clusters CPU = 0.001 seconds
PPPM initialization ...
  using 12-bit tables for long-range coulomb (../kspace.cpp:340)
  G vector (1/distance) = 0.330894
  grid = 48 64 60
  stencil order = 7
  estimated absolute RMS force accuracy = 0.0003053739
  estimated relative force accuracy = 9.1962444e-07
  using single precision MKL FFT
  3d grid and FFT values/proc = 52767 24576
----------------------------------------------------------
Using INTEL Package without Coprocessor.
Compiler: Intel Classic C++ 20.21.5 / Intel(R) C++ g++ 9.3 mode
SIMD compiler directives: Enabled
Precision: mixed
----------------------------------------------------------
  generated 2278 of 2278 mixed pair_coeff terms from arithmetic mixing rule
Neighbor list info ...
  update every 1 steps, delay 5 steps, check yes
  max neighbors/atom: 2000, page size: 100000
  master list distance cutoff = 12
  ghost atom cutoff = 12
  binsize = 6, bins = 10 13 13
  1 neighbor lists, perpetual/occasional/extra = 1 0 0
  (1) pair lj/charmm/coul/long/intel, perpetual
      attributes: half, newton on, intel
      pair build: half/bin/newton/intel
      stencil: half/bin/3d
      bin: intel
Setting up Verlet run ...
  Unit style    : real
  Current step  : 0
  Time step     : 2
Per MPI rank memory allocation (min/avg/max) = 72.93 | 73.61 | 74.29 Mbytes
---------------- Step        0 ----- CPU =      0.0000 (sec) ----------------
TotEng   =    -25359.0928 KinEng   =     21444.8313 Temp     =       299.0397 
PotEng   =    -46803.9241 E_bond   =      2537.9949 E_angle  =     10921.3721 
E_dihed  =      5211.7865 E_impro  =       213.5135 E_vdwl   =     -2307.8639 
E_coul   =    295609.1435 E_long   =   -358989.8708 Press    =      -152.9706 
Volume   =    307995.0335 
---------------- Step       50 ----- CPU =      0.5746 (sec) ----------------
TotEng   =    -25333.6215 KinEng   =     21500.8705 Temp     =       299.8211 
PotEng   =    -46834.4920 E_bond   =      2471.6188 E_angle  =     10836.6292 
E_dihed  =      5239.4559 E_impro  =       227.1356 E_vdwl   =     -1992.5463 
E_coul   =    295389.2265 E_long   =   -359006.0117 Press    =       234.7357 
Volume   =    308031.1089 
---------------- Step      100 ----- CPU =      1.1507 (sec) ----------------
TotEng   =    -25289.9614 KinEng   =     21590.5986 Temp     =       301.0723 
PotEng   =    -46880.5600 E_bond   =      2567.7716 E_angle  =     10781.2289 
E_dihed  =      5198.4984 E_impro  =       216.7855 E_vdwl   =     -1900.4005 
E_coul   =    295255.4766 E_long   =   -358999.9205 Press    =        12.0161 
Volume   =    308132.4457 
---------------- Step      150 ----- CPU =      1.7260 (sec) ----------------
TotEng   =    -25257.9461 KinEng   =     21543.6466 Temp     =       300.4176 
PotEng   =    -46801.5927 E_bond   =      2555.7823 E_angle  =     10855.4929 
E_dihed  =      5263.9110 E_impro  =       203.1489 E_vdwl   =     -2069.9213 
E_coul   =    295372.7307 E_long   =   -358982.7373 Press    =       241.9311 
Volume   =    308515.9460 
---------------- Step      200 ----- CPU =      2.2915 (sec) ----------------
TotEng   =    -25059.5642 KinEng   =     21483.9798 Temp     =       299.5856 
PotEng   =    -46543.5440 E_bond   =      2492.6774 E_angle  =     11072.4870 
E_dihed  =      5224.2739 E_impro  =       232.1122 E_vdwl   =     -2107.9506 
E_coul   =    295549.2235 E_long   =   -359006.3673 Press    =       112.4918 
Volume   =    308993.5259 
---------------- Step      250 ----- CPU =      2.8635 (sec) ----------------
TotEng   =    -24888.3507 KinEng   =     21592.5938 Temp     =       301.1002 
PotEng   =    -46480.9445 E_bond   =      2554.5514 E_angle  =     11113.7208 
E_dihed  =      5249.8352 E_impro  =       222.0419 E_vdwl   =     -2173.7584 
E_coul   =    295550.0310 E_long   =   -358997.3664 Press    =      -161.8396 
Volume   =    309419.0686 
---------------- Step      300 ----- CPU =      3.4261 (sec) ----------------
TotEng   =    -24894.9352 KinEng   =     21651.0209 Temp     =       301.9149 
PotEng   =    -46545.9561 E_bond   =      2569.2500 E_angle  =     10902.6318 
E_dihed  =      5218.3728 E_impro  =       226.1217 E_vdwl   =     -2173.1365 
E_coul   =    295683.5381 E_long   =   -358972.7339 Press    =      -395.2261 
Volume   =    309818.2415 
---------------- Step      350 ----- CPU =      3.9897 (sec) ----------------
TotEng   =    -25129.9685 KinEng   =     21559.7875 Temp     =       300.6427 
PotEng   =    -46689.7560 E_bond   =      2578.0303 E_angle  =     10948.3210 
E_dihed  =      5189.6562 E_impro  =       209.3205 E_vdwl   =     -2082.4661 
E_coul   =    295450.9020 E_long   =   -358983.5200 Press    =      -328.6129 
Volume   =    310120.2266 
---------------- Step      400 ----- CPU =      4.5518 (sec) ----------------
TotEng   =    -25410.0738 KinEng   =     21378.6789 Temp     =       298.1172 
PotEng   =    -46788.7526 E_bond   =      2525.6853 E_angle  =     10942.0262 
E_dihed  =      5175.7277 E_impro  =       218.4440 E_vdwl   =     -2077.8253 
E_coul   =    295411.8954 E_long   =   -358984.7060 Press    =       200.7317 
Volume   =    310246.5170 
---------------- Step      450 ----- CPU =      5.1216 (sec) ----------------
TotEng   =    -25458.6036 KinEng   =     21434.2736 Temp     =       298.8925 
PotEng   =    -46892.8772 E_bond   =      2519.4937 E_angle  =     10784.8028 
E_dihed  =      5299.1459 E_impro  =       224.3150 E_vdwl   =     -2173.6268 
E_coul   =    295442.4811 E_long   =   -358989.4889 Press    =       186.3073 
Volume   =    310260.3374 
---------------- Step      500 ----- CPU =      5.6841 (sec) ----------------
TotEng   =    -25141.1781 KinEng   =     21489.2243 Temp     =       299.6587 
PotEng   =    -46630.4023 E_bond   =      2585.6936 E_angle  =     10897.5139 
E_dihed  =      5255.5402 E_impro  =       216.6410 E_vdwl   =     -1903.4146 
E_coul   =    295296.8923 E_long   =   -358979.2688 Press    =       -41.1806 
Volume   =    310287.6098 
---------------- Step      550 ----- CPU =      6.2543 (sec) ----------------
TotEng   =    -24855.1009 KinEng   =     21761.8461 Temp     =       303.4603 
PotEng   =    -46616.9470 E_bond   =      2507.2603 E_angle  =     10928.2806 
E_dihed  =      5218.6247 E_impro  =       222.8509 E_vdwl   =     -2129.8919 
E_coul   =    295621.9955 E_long   =   -358986.0671 Press    =       -21.0510 
Volume   =    310301.8105 
---------------- Step      600 ----- CPU =      6.8180 (sec) ----------------
TotEng   =    -24813.3547 KinEng   =     21767.9097 Temp     =       303.5449 
PotEng   =    -46581.2643 E_bond   =      2576.3410 E_angle  =     10951.4676 
E_dihed  =      5227.9009 E_impro  =       226.8789 E_vdwl   =     -2036.9341 
E_coul   =    295492.9671 E_long   =   -359019.8857 Press    =       152.5361 
Volume   =    310343.9369 
Loop time of 6.81809 on 8 procs for 600 steps with 32000 atoms

Performance: 15.207 ns/day, 1.578 hours/ns, 88.001 timesteps/s
99.2% CPU use with 8 MPI tasks x 1 OpenMP threads

MPI task timing breakdown:
Section |  min time  |  avg time  |  max time  |%varavg| %total
---------------------------------------------------------------
Pair    | 3.1878     | 3.2683     | 3.3364     |   2.7 | 47.94
Bond    | 0.18674    | 0.19738    | 0.21466    |   2.0 |  2.89
Kspace  | 1.3722     | 1.4388     | 1.5309     |   4.3 | 21.10
Neigh   | 0.40007    | 0.40027    | 0.40061    |   0.0 |  5.87
Comm    | 0.19801    | 0.22724    | 0.26068    |   6.0 |  3.33
Output  | 0.00045046 | 0.0004903  | 0.00074537 |   0.0 |  0.01
Modify  | 1.1526     | 1.2292     | 1.2954     |   5.8 | 18.03
Other   |            | 0.05637    |            |       |  0.83

Nlocal:           4000 ave        4069 max        3946 min
Histogram: 1 2 1 1 0 0 1 0 1 1
Nghost:        15981.4 ave       16021 max       15939 min
Histogram: 1 1 0 1 1 1 0 0 2 1
Neighs:    1.49298e+06 ave 1.52633e+06 max 1.45872e+06 min
Histogram: 1 0 2 1 1 0 0 0 1 2

Total # of neighbors = 11943848
Ave neighs/atom = 373.24525
Ave special neighs/atom = 7.431875
Neighbor list builds = 65
Dangerous builds = 0
Total wall time: 0:00:07
