LAMMPS (7 Jan 2022)
  using 1 OpenMP thread(s) per MPI task
Reading data file ...
  orthogonal box = (-27.5 -38.5 -36.3646) to (27.5 38.5 36.3615)
  1 by 2 by 1 MPI processor grid
  reading atoms ...
  32000 atoms
  reading velocities ...
  32000 velocities
  scanning bonds ...
  4 = max bonds/atom
  scanning angles ...
  8 = max angles/atom
  scanning dihedrals ...
  18 = max dihedrals/atom
  scanning impropers ...
  2 = max impropers/atom
  reading bonds ...
  27723 bonds
  reading angles ...
  40467 angles
  reading dihedrals ...
  56829 dihedrals
  reading impropers ...
  1034 impropers
Finding 1-2 1-3 1-4 neighbors ...
  special bond factors lj:    0        0        0       
  special bond factors coul:  0        0        0       
     4 = max # of 1-2 neighbors
    12 = max # of 1-3 neighbors
    24 = max # of 1-4 neighbors
    26 = max # of special neighbors
  special bonds CPU = 0.009 seconds
  read_data CPU = 0.196 seconds
Replicating atoms ...
  orthogonal box = (-27.5 -38.5 -36.3646) to (82.5 115.5 109.0876)
  1 by 2 by 1 MPI processor grid
  256000 atoms
  221784 bonds
  323736 angles
  454632 dihedrals
  8272 impropers
Finding 1-2 1-3 1-4 neighbors ...
  special bond factors lj:    0        0        0       
  special bond factors coul:  0        0        0       
     4 = max # of 1-2 neighbors
    12 = max # of 1-3 neighbors
    24 = max # of 1-4 neighbors
    26 = max # of special neighbors
  special bonds CPU = 0.065 seconds
  replicate CPU = 0.115 seconds
Finding SHAKE clusters ...
   12936 = # of size 2 clusters
   29064 = # of size 3 clusters
    5976 = # of size 4 clusters
   33864 = # of frozen angles
  find clusters CPU = 0.028 seconds
PPPM initialization ...
  using 12-bit tables for long-range coulomb (../kspace.cpp:340)
  G vector (1/distance) = 0.32786357
  grid = 96 120 120
  stencil order = 7
  estimated absolute RMS force accuracy = 0.00036845542
  estimated relative force accuracy = 1.1095925e-06
  using single precision MKL FFT
  3d grid and FFT values/proc = 934605 691200
----------------------------------------------------------
Using INTEL Package without Coprocessor.
Compiler: Intel Classic C++ 20.21.5 / Intel(R) C++ g++ 9.3 mode
SIMD compiler directives: Enabled
Precision: mixed
----------------------------------------------------------
  generated 2278 of 2278 mixed pair_coeff terms from arithmetic mixing rule
Neighbor list info ...
  update every 1 steps, delay 5 steps, check yes
  max neighbors/atom: 2000, page size: 100000
  master list distance cutoff = 12
  ghost atom cutoff = 12
  binsize = 6, bins = 19 26 25
  1 neighbor lists, perpetual/occasional/extra = 1 0 0
  (1) pair lj/charmm/coul/long/intel, perpetual
      attributes: half, newton on, intel
      pair build: half/bin/newton/intel
      stencil: half/bin/3d
      bin: intel
Setting up Verlet run ...
  Unit style    : real
  Current step  : 0
  Time step     : 2
Per MPI rank memory allocation (min/avg/max) = 1438 | 1438 | 1438 Mbytes
---------------- Step        0 ----- CPU =      0.0000 (sec) ----------------
TotEng   =   -202873.3587 KinEng   =    171558.6503 Temp     =       299.0288 
PotEng   =   -374432.0090 E_bond   =     20303.9370 E_angle  =     87370.9630 
E_dihed  =     41694.2900 E_impro  =      1708.1116 E_vdwl   =    -18462.9090 
E_coul   =   2338815.5085 E_long   =  -2845861.9100 Press    =      -152.9531 
Volume   =   2463960.2680 
---------------- Step       50 ----- CPU =     17.1387 (sec) ----------------
TotEng   =   -202663.7751 KinEng   =    172010.1736 Temp     =       299.8158 
PotEng   =   -374673.9487 E_bond   =     19773.2457 E_angle  =     86694.1969 
E_dihed  =     41915.8734 E_impro  =      1817.1836 E_vdwl   =    -15940.0863 
E_coul   =   2337053.0659 E_long   =  -2845987.4278 Press    =       234.7908 
Volume   =   2464248.9217 
---------------- Step      100 ----- CPU =     34.5279 (sec) ----------------
TotEng   =   -202303.6603 KinEng   =    172732.7319 Temp     =       301.0752 
PotEng   =   -375036.3923 E_bond   =     20542.8141 E_angle  =     86253.3695 
E_dihed  =     41588.5300 E_impro  =      1734.2790 E_vdwl   =    -15202.4834 
E_coul   =   2335985.3691 E_long   =  -2845938.2706 Press    =        12.2668 
Volume   =   2465060.1666 
Loop time of 34.528 on 2 procs for 100 steps with 256000 atoms

Performance: 0.500 ns/day, 47.955 hours/ns, 2.896 timesteps/s
99.9% CPU use with 2 MPI tasks x 1 OpenMP threads

MPI task timing breakdown:
Section |  min time  |  avg time  |  max time  |%varavg| %total
---------------------------------------------------------------
Pair    | 17.323     | 17.373     | 17.422     |   1.2 | 50.31
Bond    | 1.0442     | 1.0463     | 1.0485     |   0.2 |  3.03
Kspace  | 7.1543     | 7.2014     | 7.2485     |   1.8 | 20.86
Neigh   | 2.0868     | 2.0869     | 2.087      |   0.0 |  6.04
Comm    | 0.62145    | 0.62226    | 0.62307    |   0.1 |  1.80
Output  | 0.00046123 | 0.00050207 | 0.00054291 |   0.0 |  0.00
Modify  | 6.1246     | 6.1286     | 6.1325     |   0.2 | 17.75
Other   |            | 0.06925    |            |       |  0.20

Nlocal:         128000 ave      128000 max      128000 min
Histogram: 2 0 0 0 0 0 0 0 0 0
Nghost:         109919 ave      109919 max      109919 min
Histogram: 2 0 0 0 0 0 0 0 0 0
Neighs:    4.81124e+07 ave 4.82284e+07 max 4.79964e+07 min
Histogram: 1 0 0 0 0 0 0 0 0 1

Total # of neighbors = 96224794
Ave neighs/atom = 375.8781
Ave special neighs/atom = 7.431875
Neighbor list builds = 11
Dangerous builds = 0
Total wall time: 0:00:35
