LAMMPS (7 Jan 2022)
  using 8 OpenMP thread(s) per MPI task
Lattice spacing in x,y,z = 1.6795962 1.6795962 1.6795962
Created orthogonal box = (0 0 0) to (33.591924 33.591924 33.591924)
  2 by 2 by 4 MPI processor grid
Created 32000 atoms
  using lattice units in orthogonal box = (0 0 0) to (33.591924 33.591924 33.591924)
  create_atoms CPU = 0.001 seconds
----------------------------------------------------------
Using INTEL Package without Coprocessor.
Compiler: Intel Classic C++ 20.21.5 / Intel(R) C++ g++ 9.3 mode
SIMD compiler directives: Enabled
Precision: mixed
----------------------------------------------------------
  generated 0 of 0 mixed pair_coeff terms from geometric mixing rule
Neighbor list info ...
  update every 20 steps, delay 0 steps, check no
  max neighbors/atom: 2000, page size: 100000
  master list distance cutoff = 2.8
  ghost atom cutoff = 2.8
  binsize = 1.4, bins = 24 24 24
  1 neighbor lists, perpetual/occasional/extra = 1 0 0
  (1) pair lj/cut/intel, perpetual
      attributes: half, newton on, intel
      pair build: half/bin/newton/intel
      stencil: half/bin/3d
      bin: intel
Setting up Verlet run ...
  Unit style    : lj
  Current step  : 0
  Time step     : 0.005
Per MPI rank memory allocation (min/avg/max) = 25.88 | 27.57 | 29.24 Mbytes
Step Temp E_pair E_mol TotEng Press 
       0         1.44   -6.7733683            0   -4.6134358    -5.019707 
   10000   0.69949147   -5.6707321            0   -4.6215277   0.72548354 
Loop time of 3.63883 on 128 procs for 10000 steps with 32000 atoms

Performance: 1187193.541 tau/day, 2748.133 timesteps/s
336.0% CPU use with 16 MPI tasks x 8 OpenMP threads

MPI task timing breakdown:
Section |  min time  |  avg time  |  max time  |%varavg| %total
---------------------------------------------------------------
Pair    | 1.6415     | 1.665      | 1.7021     |   1.3 | 45.76
Neigh   | 0.15457    | 0.15877    | 0.16204    |   0.5 |  4.36
Comm    | 1.0586     | 1.094      | 1.1213     |   1.8 | 30.07
Output  | 6.5715e-05 | 6.9768e-05 | 8.8702e-05 |   0.0 |  0.00
Modify  | 0.65451    | 0.66419    | 0.67475    |   0.7 | 18.25
Other   |            | 0.05676    |            |       |  1.56

Nlocal:           2000 ave        2021 max        1975 min
Histogram: 1 1 0 5 0 2 3 0 1 3
Nghost:        3911.94 ave        3936 max        3889 min
Histogram: 2 2 1 1 1 2 3 2 0 2
Neighs:        74990.6 ave       76643 max       73332 min
Histogram: 2 0 0 4 2 4 0 1 1 2

Total # of neighbors = 1199850
Ave neighs/atom = 37.495312
Neighbor list builds = 500
Dangerous builds not checked
Total wall time: 0:00:03
