LAMMPS (7 Jan 2022)
  using 16 OpenMP thread(s) per MPI task
Lattice spacing in x,y,z = 1.6795962 1.6795962 1.6795962
Created orthogonal box = (0 0 0) to (33.591924 33.591924 33.591924)
  2 by 2 by 2 MPI processor grid
Created 32000 atoms
  using lattice units in orthogonal box = (0 0 0) to (33.591924 33.591924 33.591924)
  create_atoms CPU = 0.002 seconds
----------------------------------------------------------
Using INTEL Package without Coprocessor.
Compiler: Intel Classic C++ 20.21.5 / Intel(R) C++ g++ 9.3 mode
SIMD compiler directives: Enabled
Precision: mixed
----------------------------------------------------------
  generated 0 of 0 mixed pair_coeff terms from geometric mixing rule
Neighbor list info ...
  update every 20 steps, delay 0 steps, check no
  max neighbors/atom: 2000, page size: 100000
  master list distance cutoff = 2.8
  ghost atom cutoff = 2.8
  binsize = 1.4, bins = 24 24 24
  1 neighbor lists, perpetual/occasional/extra = 1 0 0
  (1) pair lj/cut/intel, perpetual
      attributes: half, newton on, intel
      pair build: half/bin/newton/intel
      stencil: half/bin/3d
      bin: intel
Setting up Verlet run ...
  Unit style    : lj
  Current step  : 0
  Time step     : 0.005
Per MPI rank memory allocation (min/avg/max) = 55.17 | 55.17 | 55.17 Mbytes
Step Temp E_pair E_mol TotEng Press 
       0         1.44   -6.7733683            0   -4.6134358    -5.019707 
   10000   0.70120119   -5.6732128            0   -4.6214439   0.70960457 
Loop time of 5.05428 on 128 procs for 10000 steps with 32000 atoms

Performance: 854721.553 tau/day, 1978.522 timesteps/s
682.9% CPU use with 8 MPI tasks x 16 OpenMP threads

MPI task timing breakdown:
Section |  min time  |  avg time  |  max time  |%varavg| %total
---------------------------------------------------------------
Pair    | 2.2144     | 2.2296     | 2.2399     |   0.6 | 44.11
Neigh   | 0.21065    | 0.21386    | 0.22594    |   1.0 |  4.23
Comm    | 1.1799     | 1.2006     | 1.2175     |   1.1 | 23.75
Output  | 6.4389e-05 | 6.6654e-05 | 7.7599e-05 |   0.0 |  0.00
Modify  | 1.3066     | 1.3288     | 1.3527     |   1.4 | 26.29
Other   |            | 0.08131    |            |       |  1.61

Nlocal:           4000 ave        4017 max        3986 min
Histogram: 2 1 0 0 2 0 1 1 0 1
Nghost:        5493.62 ave        5511 max        5477 min
Histogram: 3 0 1 0 0 0 0 2 0 2
Neighs:         149947 ave      151942 max      147118 min
Histogram: 1 0 0 1 1 0 2 0 2 1

Total # of neighbors = 1199574
Ave neighs/atom = 37.486688
Neighbor list builds = 500
Dangerous builds not checked
Total wall time: 0:00:05
