LAMMPS (7 Jan 2022)
  using 64 OpenMP thread(s) per MPI task
Lattice spacing in x,y,z = 1.6795962 1.6795962 1.6795962
Created orthogonal box = (0 0 0) to (33.591924 33.591924 33.591924)
  1 by 1 by 2 MPI processor grid
Created 32000 atoms
  using lattice units in orthogonal box = (0 0 0) to (33.591924 33.591924 33.591924)
  create_atoms CPU = 0.007 seconds
----------------------------------------------------------
Using INTEL Package without Coprocessor.
Compiler: Intel Classic C++ 20.21.5 / Intel(R) C++ g++ 9.3 mode
SIMD compiler directives: Enabled
Precision: mixed
----------------------------------------------------------
  generated 0 of 0 mixed pair_coeff terms from geometric mixing rule
Neighbor list info ...
  update every 20 steps, delay 0 steps, check no
  max neighbors/atom: 2000, page size: 100000
  master list distance cutoff = 2.8
  ghost atom cutoff = 2.8
  binsize = 1.4, bins = 24 24 24
  1 neighbor lists, perpetual/occasional/extra = 1 0 0
  (1) pair lj/cut/intel, perpetual
      attributes: half, newton on, intel
      pair build: half/bin/newton/intel
      stencil: half/bin/3d
      bin: intel
Setting up Verlet run ...
  Unit style    : lj
  Current step  : 0
  Time step     : 0.005
Per MPI rank memory allocation (min/avg/max) = 291.7 | 291.7 | 291.7 Mbytes
Step Temp E_pair E_mol TotEng Press 
       0         1.44   -6.7733683            0   -4.6134358    -5.019707 
   10000    0.7002807   -5.6715857            0   -4.6211975   0.73220641 
Loop time of 9.23017 on 128 procs for 10000 steps with 32000 atoms

Performance: 468030.529 tau/day, 1083.404 timesteps/s
2860.4% CPU use with 2 MPI tasks x 64 OpenMP threads

MPI task timing breakdown:
Section |  min time  |  avg time  |  max time  |%varavg| %total
---------------------------------------------------------------
Pair    | 3.4782     | 3.5208     | 3.5634     |   2.3 | 38.14
Neigh   | 0.3192     | 0.32141    | 0.32363    |   0.4 |  3.48
Comm    | 1.9671     | 2.0609     | 2.1546     |   6.5 | 22.33
Output  | 0.00011081 | 0.00012118 | 0.00013154 |   0.0 |  0.00
Modify  | 3.0001     | 3.0494     | 3.0988     |   2.8 | 33.04
Other   |            | 0.2775     |            |       |  3.01

Nlocal:          16000 ave       16004 max       15996 min
Histogram: 1 0 0 0 0 0 0 0 0 1
Nghost:          13045 ave       13047 max       13043 min
Histogram: 1 0 0 0 0 0 0 0 0 1
Neighs:         600142 ave      604604 max      595681 min
Histogram: 1 0 0 0 0 0 0 0 0 1

Total # of neighbors = 1200285
Ave neighs/atom = 37.508906
Neighbor list builds = 500
Dangerous builds not checked
Total wall time: 0:00:09
