LAMMPS (7 Jan 2022)
  using 1 OpenMP thread(s) per MPI task
Reading data file ...
  orthogonal box = (0 0 0) to (40 20 37.2886)
  2 by 2 by 2 MPI processor grid
  reading atoms ...
  32000 atoms
  reading velocities ...
  32000 velocities
  read_data CPU = 0.110 seconds
Replicating atoms ...
  orthogonal box = (0 0 0) to (120 60 37.292229)
  4 by 2 by 1 MPI processor grid
  288000 atoms
  replicate CPU = 0.026 seconds
8208 atoms in group bottom
279792 atoms in group active
  generated 0 of 1 mixed pair_coeff terms from geometric mixing rule
Neighbor list info ...
  update every 1 steps, delay 0 steps, check yes
  max neighbors/atom: 2000, page size: 100000
  master list distance cutoff = 1.1
  ghost atom cutoff = 1.1
  binsize = 0.55, bins = 219 110 68
  1 neighbor lists, perpetual/occasional/extra = 1 0 0
  (1) pair gran/hooke/history, perpetual
      attributes: half, newton off, size, history
      pair build: half/size/bin/newtoff
      stencil: full/bin/3d
      bin: standard
Setting up Verlet run ...
  Unit style    : lj
  Current step  : 0
  Time step     : 0.0001
Per MPI rank memory allocation (min/avg/max) = 23.78 | 23.78 | 23.78 Mbytes
Step Atoms KinEng c_1 Volume 
       0   288000    7057252.2    14410.137    268504.05 
     100   288000    7058628.7    14139.871    268512.37 
     200   288000    7059804.4    14164.771    268526.08 
     250   288000    7060397.7     14246.58    268535.13 
Loop time of 1.12168 on 8 procs for 250 steps with 288000 atoms

Performance: 1925.675 tau/day, 222.879 timesteps/s
99.4% CPU use with 8 MPI tasks x 1 OpenMP threads

MPI task timing breakdown:
Section |  min time  |  avg time  |  max time  |%varavg| %total
---------------------------------------------------------------
Pair    | 0.48948    | 0.49816    | 0.50679    |   0.8 | 44.41
Neigh   | 0.17162    | 0.17202    | 0.17289    |   0.1 | 15.34
Comm    | 0.077571   | 0.079391   | 0.08187    |   0.6 |  7.08
Output  | 0.00086436 | 0.0012439  | 0.0014671  |   0.5 |  0.11
Modify  | 0.23262    | 0.24791    | 0.27286    |   2.9 | 22.10
Other   |            | 0.123      |            |       | 10.96

Nlocal:          36000 ave       36030 max       35970 min
Histogram: 4 0 0 0 0 0 0 0 0 4
Nghost:           5478 ave        5495 max        5461 min
Histogram: 4 0 0 0 0 0 0 0 0 4
Neighs:         128988 ave      129133 max      128842 min
Histogram: 4 0 0 0 0 0 0 0 0 4

Total # of neighbors = 1031906
Ave neighs/atom = 3.5830069
Neighbor list builds = 7
Dangerous builds = 0
Total wall time: 0:00:01
