LAMMPS (7 Jan 2022)
  using 1 OpenMP thread(s) per MPI task
Reading data file ...
  orthogonal box = (0 0 0) to (40 20 37.2886)
  2 by 1 by 1 MPI processor grid
  reading atoms ...
  32000 atoms
  reading velocities ...
  32000 velocities
  read_data CPU = 0.130 seconds
Replicating atoms ...
  orthogonal box = (0 0 0) to (160 80 37.292229)
  2 by 1 by 1 MPI processor grid
  512000 atoms
  replicate CPU = 0.050 seconds
14592 atoms in group bottom
497408 atoms in group active
  generated 0 of 1 mixed pair_coeff terms from geometric mixing rule
Neighbor list info ...
  update every 1 steps, delay 0 steps, check yes
  max neighbors/atom: 2000, page size: 100000
  master list distance cutoff = 1.1
  ghost atom cutoff = 1.1
  binsize = 0.55, bins = 291 146 68
  1 neighbor lists, perpetual/occasional/extra = 1 0 0
  (1) pair gran/hooke/history, perpetual
      attributes: half, newton off, size, history
      pair build: half/size/bin/newtoff
      stencil: full/bin/3d
      bin: standard
Setting up Verlet run ...
  Unit style    : lj
  Current step  : 0
  Time step     : 0.0001
Per MPI rank memory allocation (min/avg/max) = 119.6 | 119.6 | 119.6 Mbytes
Step Atoms KinEng c_1 Volume 
       0   512000     12546226    25618.021    477340.53 
     100   512000     12548673    25137.549    477355.32 
     125   512000     12549189    25072.559    477363.06 
Loop time of 3.15772 on 2 procs for 125 steps with 512000 atoms

Performance: 342.019 tau/day, 39.585 timesteps/s
98.7% CPU use with 2 MPI tasks x 1 OpenMP threads

MPI task timing breakdown:
Section |  min time  |  avg time  |  max time  |%varavg| %total
---------------------------------------------------------------
Pair    | 1.4967     | 1.5659     | 1.6351     |   5.5 | 49.59
Neigh   | 0.43079    | 0.45625    | 0.48171    |   3.8 | 14.45
Comm    | 0.078968   | 0.080009   | 0.08105    |   0.4 |  2.53
Output  | 0.0024255  | 0.0038958  | 0.0053662  |   2.4 |  0.12
Modify  | 0.69396    | 0.72104    | 0.74812    |   3.2 | 22.83
Other   |            | 0.3306     |            |       | 10.47

Nlocal:         256000 ave      256000 max      256000 min
Histogram: 2 0 0 0 0 0 0 0 0 0
Nghost:          14217 ave       14217 max       14217 min
Histogram: 2 0 0 0 0 0 0 0 0 0
Neighs:         898390 ave      898390 max      898390 min
Histogram: 2 0 0 0 0 0 0 0 0 0

Total # of neighbors = 1796780
Ave neighs/atom = 3.5093359
Neighbor list builds = 3
Dangerous builds = 0
Total wall time: 0:00:03
