LAMMPS (7 Jan 2022)
  using 1 OpenMP thread(s) per MPI task
Reading data file ...
  orthogonal box = (0 0 0) to (40 20 37.2886)
  2 by 1 by 2 MPI processor grid
  reading atoms ...
  32000 atoms
  reading velocities ...
  32000 velocities
  read_data CPU = 0.115 seconds
Replicating atoms ...
  orthogonal box = (0 0 0) to (80 40 37.292229)
  2 by 2 by 1 MPI processor grid
  128000 atoms
  replicate CPU = 0.018 seconds
3648 atoms in group bottom
124352 atoms in group active
  generated 0 of 1 mixed pair_coeff terms from geometric mixing rule
Neighbor list info ...
  update every 1 steps, delay 0 steps, check yes
  max neighbors/atom: 2000, page size: 100000
  master list distance cutoff = 1.1
  ghost atom cutoff = 1.1
  binsize = 0.55, bins = 146 73 68
  1 neighbor lists, perpetual/occasional/extra = 1 0 0
  (1) pair gran/hooke/history, perpetual
      attributes: half, newton off, size, history
      pair build: half/size/bin/newtoff
      stencil: full/bin/3d
      bin: standard
Setting up Verlet run ...
  Unit style    : lj
  Current step  : 0
  Time step     : 0.0001
Per MPI rank memory allocation (min/avg/max) = 23.76 | 23.76 | 23.76 Mbytes
Step Atoms KinEng c_1 Volume 
       0   128000    3136556.5    6404.5051    119335.13 
     100   128000    3137168.3    6284.3873    119338.83 
     200   128000    3137690.9    6295.4536    119344.92 
     300   128000    3138253.9    6321.8969    119350.91 
     400   128000    3138832.7    6288.9526     119356.6 
     500   128000    3139327.1    6256.1914    119362.78 
Loop time of 1.89905 on 4 procs for 500 steps with 128000 atoms

Performance: 2274.821 tau/day, 263.289 timesteps/s
99.4% CPU use with 4 MPI tasks x 1 OpenMP threads

MPI task timing breakdown:
Section |  min time  |  avg time  |  max time  |%varavg| %total
---------------------------------------------------------------
Pair    | 0.84469    | 0.87934    | 0.89741    |   2.2 | 46.30
Neigh   | 0.28333    | 0.29858    | 0.30422    |   1.6 | 15.72
Comm    | 0.12621    | 0.12731    | 0.12867    |   0.3 |  6.70
Output  | 0.00097765 | 0.001337   | 0.001879   |   0.9 |  0.07
Modify  | 0.39659    | 0.41434    | 0.44234    |   3.0 | 21.82
Other   |            | 0.1781     |            |       |  9.38

Nlocal:          32000 ave       32000 max       32000 min
Histogram: 4 0 0 0 0 0 0 0 0 0
Nghost:           5457 ave        5457 max        5457 min
Histogram: 4 0 0 0 0 0 0 0 0 0
Neighs:         115357 ave      115357 max      115357 min
Histogram: 4 0 0 0 0 0 0 0 0 0

Total # of neighbors = 461428
Ave neighs/atom = 3.6049062
Neighbor list builds = 14
Dangerous builds = 0
Total wall time: 0:00:02
