LAMMPS (7 Jan 2022)
  using 1 OpenMP thread(s) per MPI task
Reading data file ...
  orthogonal box = (-16.796 -16.796 -16.796) to (16.796 16.796 16.796)
  2 by 2 by 4 MPI processor grid
  reading atoms ...
  32000 atoms
  reading velocities ...
  32000 velocities
  scanning bonds ...
  1 = max bonds/atom
  reading bonds ...
  31680 bonds
Finding 1-2 1-3 1-4 neighbors ...
  special bond factors lj:    0        1        1       
  special bond factors coul:  0        1        1       
     2 = max # of 1-2 neighbors
     2 = max # of special neighbors
  special bonds CPU = 0.002 seconds
  read_data CPU = 0.117 seconds
Replicating atoms ...
  orthogonal box = (-16.796 -16.796 -16.796) to (117.572 117.572 117.572)
  2 by 2 by 4 MPI processor grid
  2048000 atoms
  2027520 bonds
Finding 1-2 1-3 1-4 neighbors ...
  special bond factors lj:    0        1        1       
  special bond factors coul:  0        1        1       
     2 = max # of 1-2 neighbors
     2 = max # of special neighbors
  special bonds CPU = 0.032 seconds
  replicate CPU = 0.074 seconds
----------------------------------------------------------
Using INTEL Package without Coprocessor.
Compiler: Intel Classic C++ 20.21.5 / Intel(R) C++ g++ 9.3 mode
SIMD compiler directives: Enabled
Precision: mixed
----------------------------------------------------------
  generated 0 of 0 mixed pair_coeff terms from geometric mixing rule
Neighbor list info ...
  update every 1 steps, delay 1 steps, check yes
  max neighbors/atom: 2000, page size: 100000
  master list distance cutoff = 1.52
  ghost atom cutoff = 1.52
  binsize = 0.76, bins = 177 177 177
  1 neighbor lists, perpetual/occasional/extra = 1 0 0
  (1) pair lj/cut/intel, perpetual
      attributes: half, newton on, intel
      pair build: half/bin/newton/intel
      stencil: half/bin/3d
      bin: intel
Setting up Verlet run ...
  Unit style    : lj
  Current step  : 0
  Time step     : 0.012
WARNING: Communication cutoff 1.52 is shorter than a bond length based estimate of 1.855. This may lead to errors. (../comm.cpp:723)
Per MPI rank memory allocation (min/avg/max) = 1131 | 1131 | 1131 Mbytes
Step Temp E_pair E_mol TotEng Press 
       0   0.97026787     0.444841    20.494523    22.394765    4.6721831 
     100   0.97377623   0.44251998    20.501644    22.404827    4.6948964 
     200   0.97755981   0.44365849    20.503837    22.413834    4.7045513 
     300   0.98042197   0.44570818    20.505871    22.422212    4.7325932 
     400   0.98400026   0.44640985     20.50669      22.4291    4.7306513 
     500   0.98582708   0.44765991    20.507977    22.434377    4.7460692 
     600   0.98791846   0.44875484     20.50858    22.439211    4.7526895 
     700   0.99016943    0.4486636    20.509507    22.443424    4.7531673 
     800   0.99187145   0.44959558    20.509625    22.447027    4.7605751 
     900   0.99236738   0.45007104    20.511136    22.449757    4.7573676 
    1000   0.99352095   0.45065755    20.512368    22.453306    4.7664666 
    1100   0.99518612   0.45083435    20.512372    22.455985    4.7602905 
    1200    0.9956516   0.45122831    20.513044    22.457749    4.7706838 
    1300   0.99564994   0.45147495    20.514157    22.459107    4.7677531 
    1400   0.99761152   0.45137593    20.513592    22.461384    4.7799421 
    1500   0.99765363   0.45251901    20.514618    22.463616    4.7871757 
    1600   0.99815391   0.45221576    20.514554       22.464    4.7795211 
    1700   0.99820526   0.45275723    20.514208    22.464272    4.7782708 
    1800   0.99823188   0.45270372    20.514453    22.464504    4.7834781 
    1900   0.99844959   0.45303556    20.513868    22.464578    4.7722041 
    2000   0.99881677   0.45275241    20.514487    22.465463     4.785591 
    2100   0.99939145   0.45306493    20.514732    22.466883    4.7816483 
    2200    0.9991796   0.45343393    20.515321    22.467523    4.7898246 
    2300   0.99955233   0.45310938     20.51518    22.467617    4.7904039 
    2400   0.99980776   0.45394355    20.515409    22.469064    4.7959254 
    2500   0.99941424   0.45408386    20.515532    22.468736    4.7991162 
    2600   0.99998391   0.45340874    20.515323    22.468707    4.7783693 
    2700    0.9995503   0.45296101    20.515703    22.467989    4.7936514 
    2800    0.9993605   0.45351599    20.515883    22.468439    4.7853497 
    2900    1.0001552   0.45344566    20.515186    22.468864    4.7900008 
    3000    1.0006229   0.45377385    20.515092      22.4698    4.7772351 
    3100    1.0009782   0.45266529      20.5163    22.470432    4.7833511 
    3200    1.0004529   0.45393548    20.515289    22.469903    4.7832514 
    3300    1.0011375   0.45310715    20.515057     22.46987    4.7936641 
    3400    1.0004017   0.45357973    20.516485    22.470666    4.7956409 
    3500    1.0011325   0.45421831    20.515307    22.471224    4.8007256 
    3600    1.0013782   0.45326426    20.516398    22.471729    4.7874838 
    3700    1.0011881   0.45404269    20.516756    22.472581     4.798289 
    3800    1.0015962   0.45394406    20.515601    22.471938    4.7966652 
    3900    1.0011102   0.45345341    20.516579    22.471697    4.7900086 
    4000    1.0005384   0.45482494    20.515802    22.471433    4.7925826 
    4100    1.0013009   0.45359829     20.51622    22.471769    4.7795007 
    4200     1.001128   0.45425064    20.515863    22.471804    4.7891579 
    4300     1.001561   0.45365507      20.5159    22.471896    4.7926916 
    4400    1.0011524   0.45388596     20.51592    22.471534     4.798112 
    4500     1.001206   0.45393696    20.515895    22.471641    4.7996909 
    4600    1.0012443   0.45367129    20.515885    22.471422    4.7908965 
    4700    1.0009801   0.45413947    20.515726    22.471335    4.7959808 
    4800    1.0006843   0.45360622    20.515699    22.470331    4.8015173 
    4900    1.0009924   0.45483127    20.515221     22.47154    4.8140581 
    5000    1.0014434   0.45386705    20.515785    22.471816     4.796107 
    5100     1.001525   0.45375936    20.516088    22.472134     4.779513 
    5200    1.0004073   0.45385183    20.516731    22.471193    4.7927344 
    5300    1.0005803   0.45408362    20.516513    22.471467    4.7866707 
    5400    1.0010611   0.45348301    20.515731    22.470805    4.7836992 
    5500    1.0010329   0.45378405    20.515827     22.47116    4.7853523 
    5600    1.0011244   0.45365957    20.515652    22.470998      4.78718 
    5700    1.0014611   0.45406476    20.515232    22.471487     4.797767 
    5800    1.0015129   0.45338064    20.516473    22.472122    4.7876099 
    5900    1.0011359   0.45309646    20.516156    22.470956    4.7857697 
    6000    1.0014157   0.45342032    20.515413    22.470956    4.7879169 
    6100     1.001327   0.45458117    20.515248    22.471819    4.7965172 
    6200    1.0018621   0.45255758    20.515734    22.471084    4.7924746 
    6300    1.0009224   0.45408455    20.516062     22.47153    4.7910523 
    6400    1.0014408   0.45383013    20.515686    22.471677    4.7861376 
    6500    1.0009322   0.45399173    20.516185    22.471574    4.7875126 
    6600    1.0019968   0.45410077     20.51567    22.472765    4.7917901 
    6700    1.0019267   0.45415202    20.515344    22.472386    4.7851721 
    6800    1.0014292   0.45483499    20.515881    22.472859    4.7964913 
    6900    1.0021268    0.4533085    20.515218    22.471716    4.7974068 
    7000     1.000913   0.45379197    20.515737    22.470898     4.794693 
    7100    1.0004568   0.45424501    20.515287    22.470216     4.793298 
    7200   0.99996346    0.4533052    20.516338    22.469588    4.7911772 
    7300    1.0005721   0.45402561    20.515215    22.470098    4.7906494 
    7400    0.9997159   0.45459045    20.515225    22.469389    4.7973058 
    7500   0.99996339   0.45279275    20.516344    22.469081    4.7868269 
    7600     1.000088   0.45259921    20.516509    22.469239    4.7850373 
    7700   0.99996241   0.45324483    20.516418    22.469606    4.7874181 
    7800   0.99980901   0.45354728    20.515844    22.469104     4.783279 
    7900    1.0000202   0.45362242    20.516342    22.469994    4.8038969 
    8000    1.0007174   0.45319318    20.515823    22.470091    4.7888127 
    8100    1.0007205   0.45332685     20.51571    22.470117    4.7812245 
    8200    1.0001485   0.45404678    20.515708    22.469976    4.7908011 
    8300     1.000547   0.45397434    20.515393    22.470187    4.7974124 
    8400    1.0009468   0.45374106    20.515421    22.470581    4.7932202 
    8500    1.0009289   0.45387432    20.515802    22.471069    4.8009992 
    8600    1.0013605   0.45332726    20.515358    22.470725    4.7907717 
    8700     1.001344    0.4530839    20.515919    22.471019    4.7913209 
    8800    1.0005718   0.45410403    20.515277    22.470238    4.8082154 
    8900   0.99984836   0.45369394    20.515496    22.468962    4.7952527 
    9000     1.000183   0.45398641     20.51551    22.469771    4.7869627 
    9100    1.0006169   0.45334786    20.515695    22.469967    4.7835149 
    9200    1.0006495   0.45398542    20.515041        22.47     4.791042 
    9300    1.0011415   0.45355826    20.515052    22.470321     4.800314 
    9400     1.001244   0.45343784    20.515614    22.470917    4.7962199 
    9500    1.0012004   0.45369577    20.516711    22.472207    4.7900488 
    9600    1.0011883   0.45389707    20.516279    22.471958    4.7936479 
    9700    1.0013258   0.45415743    20.516089    22.472234    4.7941559 
    9800    1.0007869   0.45384397    20.516347    22.471371     4.787981 
    9900    1.0013856   0.45372855    20.514807    22.470613    4.7913466 
   10000     1.000513   0.45372846    20.516191    22.470688    4.7909217 
Loop time of 379.519 on 16 procs for 10000 steps with 2048000 atoms

Performance: 27318.780 tau/day, 26.349 timesteps/s
98.8% CPU use with 16 MPI tasks x 1 OpenMP threads

MPI task timing breakdown:
Section |  min time  |  avg time  |  max time  |%varavg| %total
---------------------------------------------------------------
Pair    | 91.396     | 91.756     | 92.083     |   2.1 | 24.18
Bond    | 18.443     | 18.723     | 18.966     |   3.3 |  4.93
Neigh   | 86.22      | 86.316     | 86.386     |   0.5 | 22.74
Comm    | 92.571     | 93.245     | 94.259     |   4.1 | 24.57
Output  | 0.042962   | 0.072672   | 0.078921   |   3.0 |  0.02
Modify  | 71.717     | 72.704     | 76.623     |  13.0 | 19.16
Other   |            | 16.7       |            |       |  4.40

Nlocal:         128000 ave      128087 max      127867 min
Histogram: 1 0 1 1 2 3 0 4 2 2
Nghost:        24488.1 ave       24614 max       24392 min
Histogram: 2 2 1 1 4 1 3 1 0 1
Neighs:         749610 ave      751463 max      748322 min
Histogram: 1 2 2 2 5 2 1 0 0 1

Total # of neighbors = 11993763
Ave neighs/atom = 5.8563296
Ave special neighs/atom = 1.98
Neighbor list builds = 2973
Dangerous builds = 0
Total wall time: 0:06:19
Intel(R) VTune(TM) Profiler 2022.2.0 collection completed successfully. Use the "aps --report /home/ubuntu/lammps/bench/aps_result_20220703" command to generate textual and HTML reports for the profiling session.
