LAMMPS (7 Jan 2022)
  using 1 OpenMP thread(s) per MPI task
Reading data file ...
  orthogonal box = (-16.796 -16.796 -16.796) to (16.796 16.796 16.796)
  1 by 1 by 2 MPI processor grid
  reading atoms ...
  32000 atoms
  reading velocities ...
  32000 velocities
  scanning bonds ...
  1 = max bonds/atom
  reading bonds ...
  31680 bonds
Finding 1-2 1-3 1-4 neighbors ...
  special bond factors lj:    0        1        1       
  special bond factors coul:  0        1        1       
     2 = max # of 1-2 neighbors
     2 = max # of special neighbors
  special bonds CPU = 0.002 seconds
  read_data CPU = 0.119 seconds
----------------------------------------------------------
Using INTEL Package without Coprocessor.
Compiler: Intel Classic C++ 20.21.5 / Intel(R) C++ g++ 9.3 mode
SIMD compiler directives: Enabled
Precision: single
----------------------------------------------------------
  generated 0 of 0 mixed pair_coeff terms from geometric mixing rule
Neighbor list info ...
  update every 1 steps, delay 1 steps, check yes
  max neighbors/atom: 2000, page size: 100000
  master list distance cutoff = 1.52
  ghost atom cutoff = 1.52
  binsize = 0.76, bins = 45 45 45
  1 neighbor lists, perpetual/occasional/extra = 1 0 0
  (1) pair lj/cut/intel, perpetual
      attributes: half, newton on, intel
      pair build: half/bin/newton/intel
      stencil: half/bin/3d
      bin: intel
Setting up Verlet run ...
  Unit style    : lj
  Current step  : 0
  Time step     : 0.012
WARNING: Communication cutoff 1.52 is shorter than a bond length based estimate of 1.855. This may lead to errors. (../comm.cpp:723)
Per MPI rank memory allocation (min/avg/max) = 144.1 | 144.2 | 144.4 Mbytes
Step Temp E_pair E_mol TotEng Press 
       0   0.97029772   0.44484056    20.494529    22.394771    4.6721836 
     100   0.97521178   0.44597592    20.500506    22.409254    4.7091973 
Loop time of 0.440713 on 2 procs for 100 steps with 32000 atoms

Performance: 235254.892 tau/day, 226.905 timesteps/s
99.8% CPU use with 2 MPI tasks x 1 OpenMP threads

MPI task timing breakdown:
Section |  min time  |  avg time  |  max time  |%varavg| %total
---------------------------------------------------------------
Pair    | 0.1276     | 0.12786    | 0.12811    |   0.1 | 29.01
Bond    | 0.020594   | 0.020832   | 0.021069   |   0.2 |  4.73
Neigh   | 0.11126    | 0.11131    | 0.11135    |   0.0 | 25.26
Comm    | 0.061948   | 0.062148   | 0.062348   |   0.1 | 14.10
Output  | 0.00013271 | 0.00014052 | 0.00014832 |   0.0 |  0.03
Modify  | 0.10163    | 0.10171    | 0.1018     |   0.0 | 23.08
Other   |            | 0.01672    |            |       |  3.79

Nlocal:          16000 ave       16030 max       15970 min
Histogram: 1 0 0 0 0 0 0 0 0 1
Nghost:           6485 ave        6532 max        6438 min
Histogram: 1 0 0 0 0 0 0 0 0 1
Neighs:          93661 ave       93884 max       93438 min
Histogram: 1 0 0 0 0 0 0 0 0 1

Total # of neighbors = 187322
Ave neighs/atom = 5.8538125
Ave special neighs/atom = 1.98
Neighbor list builds = 25
Dangerous builds = 0
Total wall time: 0:00:00
Intel(R) VTune(TM) Profiler 2022.2.0 collection completed successfully. Use the "aps --report /home/ubuntu/lammps/bench/aps_result_20220601" command to generate textual and HTML reports for the profiling session.
