LAMMPS (7 Jan 2022)
  using 1 OpenMP thread(s) per MPI task
Reading data file ...
  orthogonal box = (-16.796 -16.796 -16.796) to (16.796 16.796 16.796)
  2 by 2 by 2 MPI processor grid
  reading atoms ...
  32000 atoms
  reading velocities ...
  32000 velocities
  scanning bonds ...
  1 = max bonds/atom
  reading bonds ...
  31680 bonds
Finding 1-2 1-3 1-4 neighbors ...
  special bond factors lj:    0        1        1       
  special bond factors coul:  0        1        1       
     2 = max # of 1-2 neighbors
     2 = max # of special neighbors
  special bonds CPU = 0.014 seconds
  read_data CPU = 0.201 seconds
----------------------------------------------------------
Using INTEL Package without Coprocessor.
Compiler: Intel Classic C++ 20.21.5 / Intel(R) C++ g++ 9.3 mode
SIMD compiler directives: Enabled
Precision: mixed
----------------------------------------------------------
  generated 0 of 0 mixed pair_coeff terms from geometric mixing rule
Neighbor list info ...
  update every 1 steps, delay 1 steps, check yes
  max neighbors/atom: 2000, page size: 100000
  master list distance cutoff = 1.52
  ghost atom cutoff = 1.52
  binsize = 0.76, bins = 45 45 45
  1 neighbor lists, perpetual/occasional/extra = 1 0 0
  (1) pair lj/cut/intel, perpetual
      attributes: half, newton on, intel
      pair build: half/bin/newton/intel
      stencil: half/bin/3d
      bin: intel
Setting up Verlet run ...
  Unit style    : lj
  Current step  : 0
  Time step     : 0.012
WARNING: Communication cutoff 1.52 is shorter than a bond length based estimate of 1.855. This may lead to errors. (../comm.cpp:723)
Per MPI rank memory allocation (min/avg/max) = 38.28 | 38.47 | 38.57 Mbytes
Step Temp E_pair E_mol TotEng Press 
       0   0.97029772   0.44484085    20.494523    22.394765    4.6721835 
     100   0.97432589   0.44082469    20.504378    22.406646    4.6543451 
Loop time of 0.227982 on 8 procs for 100 steps with 32000 atoms

Performance: 454773.015 tau/day, 438.631 timesteps/s
83.6% CPU use with 8 MPI tasks x 1 OpenMP threads

MPI task timing breakdown:
Section |  min time  |  avg time  |  max time  |%varavg| %total
---------------------------------------------------------------
Pair    | 0.024836   | 0.030916   | 0.032094   |   1.3 | 13.56
Bond    | 0.004226   | 0.0052464  | 0.0055368  |   0.5 |  2.30
Neigh   | 0.04388    | 0.043951   | 0.044038   |   0.0 | 19.28
Comm    | 0.084964   | 0.086279   | 0.093653   |   1.0 | 37.84
Output  | 2.6713e-05 | 5.8193e-05 | 0.00010257 |   0.0 |  0.03
Modify  | 0.02434    | 0.028126   | 0.051274   |   5.2 | 12.34
Other   |            | 0.03341    |            |       | 14.65

Nlocal:           4000 ave        4017 max        3972 min
Histogram: 1 0 0 0 0 2 2 1 0 2
Nghost:         2586.5 ave        2625 max        2545 min
Histogram: 2 0 0 0 1 0 3 1 0 1
Neighs:        23458.5 ave       23723 max       23126 min
Histogram: 1 0 0 0 0 5 0 1 0 1

Total # of neighbors = 187668
Ave neighs/atom = 5.864625
Ave special neighs/atom = 1.98
Neighbor list builds = 25
Dangerous builds = 0
Total wall time: 0:00:00
Intel(R) VTune(TM) Profiler 2022.2.0 collection completed successfully. Use the "aps --report /home/ubuntu/lammps/bench/aps_result_20220526" command to generate textual and HTML reports for the profiling session.
