LAMMPS (7 Jan 2022)
  using 1 OpenMP thread(s) per MPI task
Reading data file ...
  orthogonal box = (-16.796 -16.796 -16.796) to (16.796 16.796 16.796)
  2 by 2 by 4 MPI processor grid
  reading atoms ...
  32000 atoms
  reading velocities ...
  32000 velocities
  scanning bonds ...
  1 = max bonds/atom
  reading bonds ...
  31680 bonds
Finding 1-2 1-3 1-4 neighbors ...
  special bond factors lj:    0        1        1       
  special bond factors coul:  0        1        1       
     2 = max # of 1-2 neighbors
     2 = max # of special neighbors
  special bonds CPU = 0.001 seconds
  read_data CPU = 0.118 seconds
Replicating atoms ...
  orthogonal box = (-16.796 -16.796 -16.796) to (50.388 50.388 50.388)
  2 by 2 by 4 MPI processor grid
  256000 atoms
  253440 bonds
Finding 1-2 1-3 1-4 neighbors ...
  special bond factors lj:    0        1        1       
  special bond factors coul:  0        1        1       
     2 = max # of 1-2 neighbors
     2 = max # of special neighbors
  special bonds CPU = 0.004 seconds
  replicate CPU = 0.015 seconds
----------------------------------------------------------
Using INTEL Package without Coprocessor.
Compiler: Intel Classic C++ 20.21.5 / Intel(R) C++ g++ 9.3 mode
SIMD compiler directives: Enabled
Precision: mixed
----------------------------------------------------------
  generated 0 of 0 mixed pair_coeff terms from geometric mixing rule
Neighbor list info ...
  update every 1 steps, delay 1 steps, check yes
  max neighbors/atom: 2000, page size: 100000
  master list distance cutoff = 1.52
  ghost atom cutoff = 1.52
  binsize = 0.76, bins = 89 89 89
  1 neighbor lists, perpetual/occasional/extra = 1 0 0
  (1) pair lj/cut/intel, perpetual
      attributes: half, newton on, intel
      pair build: half/bin/newton/intel
      stencil: half/bin/3d
      bin: intel
Setting up Verlet run ...
  Unit style    : lj
  Current step  : 0
  Time step     : 0.012
WARNING: Communication cutoff 1.52 is shorter than a bond length based estimate of 1.855. This may lead to errors. (../comm.cpp:723)
Per MPI rank memory allocation (min/avg/max) = 145.3 | 145.5 | 145.6 Mbytes
Step Temp E_pair E_mol TotEng Press 
       0   0.97027119   0.44484088    20.494523    22.394765    4.6721834 
     100   0.97372369   0.44185248    20.500248     22.40268    4.6656724 
     200   0.97568197   0.44505947    20.503306    22.411883    4.7148152 
     300   0.98022048   0.44313924    20.507153    22.420617    4.6981853 
     400   0.98467255   0.44466408    20.506323     22.42799    4.7565901 
     500   0.98672264   0.44697239     20.50759    22.434641    4.7395566 
     600   0.98945015   0.44599069    20.512369    22.442529    4.7813281 
     700   0.99098173   0.44815273     20.51305    22.447669    4.7275982 
     800   0.99252582   0.45200181     20.51168    22.452464    4.7698345 
     900   0.99484607   0.44923083    20.513175    22.454669    4.7765875 
    1000   0.99560417   0.45091011    20.512237    22.456547    4.7555831 
    1100   0.99371504   0.45367612    20.513562    22.457805    4.7748539 
    1200   0.99601538   0.45212715    20.514196     22.46034    4.7828324 
    1300   0.99832139   0.45212557     20.51421    22.463812    4.7651655 
    1400   0.99672416   0.45328034    20.513817    22.462178    4.7919014 
    1500   0.99732648   0.45480167    20.512417    22.463202    4.7885456 
    1600   0.99726803   0.45240204    20.514138    22.462437    4.7762527 
    1700   0.99793528   0.45187585     20.51472    22.463493    4.7570814 
    1800   0.99864947   0.45326057    20.513166    22.464395    4.7684218 
    1900   0.99560929   0.45472354    20.515669      22.4638    4.8153252 
    2000   0.99930107   0.45323508    20.512902    22.465083    4.7854474 
    2100   0.99691389   0.45310105      20.5164    22.464866    4.7630056 
    2200   0.99705608   0.45316237    20.516158    22.464899    4.7711463 
    2300    1.0000281   0.45273827    20.514856     22.46763    4.7947185 
    2400    1.0002436   0.45565549    20.513878    22.469893    4.8155805 
    2500   0.99889768   0.45469228    20.515322    22.468355    4.8083275 
    2600   0.99769006   0.45492857    20.515651    22.467109    4.7932022 
    2700    0.9997029   0.45475805     20.51386    22.468167    4.7926726 
    2800    1.0023324   0.45199474     20.51207    22.467557    4.8108216 
    2900   0.99914778   0.45447938    20.513271    22.466467    4.7841613 
    3000   0.99936253   0.45292071    20.515628    22.467586     4.806013 
    3100    1.0025911   0.45292145    20.514081    22.470883    4.7756235 
    3200    1.0019719   0.45565075    20.513372    22.471975       4.7934 
    3300    1.0016732   0.45415384    20.514704    22.471362    4.7663201 
    3400    1.0014961   0.45367723    20.518394     22.47431    4.7423625 
    3500    1.0027952   0.45398228    20.515686    22.473855    4.8122221 
    3600    1.0017477   0.45267013    20.516999    22.472285    4.7744877 
    3700    1.0010446   0.45377721     20.51618    22.471518    4.7976538 
    3800   0.99992623    0.4559684    20.516599    22.472451    4.8100089 
    3900     1.000781   0.45405103    20.515698    22.470915    4.8084478 
    4000    1.0014941   0.45382095    20.515408    22.471464    4.8028368 
    4100    1.0010982   0.45259231    20.518523    22.472756    4.7775532 
    4200    1.0020792   0.45447493    20.515437    22.473025    4.8187285 
    4300     1.002334   0.45409083    20.515469    22.473055    4.7908589 
    4400    1.0016483   0.45447865    20.515597    22.472542     4.792833 
    4500   0.99962144     0.455982    20.515313    22.470721    4.7998109 
    4600    1.0012925   0.45206966    20.514924    22.468926    4.7760492 
    4700    1.0002562   0.45312575    20.514745    22.468249    4.7676647 
    4800   0.99997299   0.45403682     20.51463    22.468621    4.7878153 
    4900    1.0002573   0.45409772    20.514252     22.46873     4.785396 
    5000   0.99958095    0.4532823    20.515597    22.468245    4.7598841 
    5100    1.0000964   0.45352946    20.516937    22.470605    4.7978297 
    5200    1.0017232   0.45314364    20.516045    22.471767    4.8116845 
    5300   0.99968168   0.45411884    20.516882    22.470518    4.8170396 
    5400    1.0005668   0.45285335    20.516598    22.470296    4.7956605 
    5500    1.0017937   0.45145602    20.515481    22.469622    4.7861545 
    5600    1.0012794   0.45394585    20.516102    22.471961    4.8054215 
    5700    1.0000734   0.45220239    20.516107    22.468414     4.796153 
    5800   0.99917566   0.45266769    20.514244     22.46567    4.7827317 
    5900   0.99948965   0.45210986    20.518607    22.469945    4.7982013 
    6000    1.0009091   0.45384779    20.517128    22.472334    4.8002871 
    6100    1.0015391   0.45468156    20.513898    22.470883    4.8093044 
    6200    1.0016274   0.45487409    20.516496    22.473805    4.8063445 
    6300      1.00157    0.4575367    20.514932    22.474818    4.8042334 
    6400    1.0015592   0.45424455    20.517726    22.474303    4.8370893 
    6500    1.0014627    0.4535127    20.516474    22.472175    4.8174491 
    6600    1.0019237   0.45156373     20.51625    22.470693    4.7948746 
    6700    1.0009278   0.45397824    20.515975    22.471339    4.7996386 
    6800    1.0001744   0.45531378    20.515332    22.470902    4.7826595 
    6900    1.0011146   0.45227601    20.517021    22.470963    4.7930974 
    7000   0.99971933   0.45482055    20.514827    22.469221    4.7886275 
    7100    1.0010769   0.45445891     20.51247    22.468539    4.7703203 
    7200    1.0014441   0.45368778    20.514984    22.470832    4.7765108 
    7300   0.99979872   0.45438918    20.516372    22.470454     4.795317 
    7400    1.0004284    0.4550728    20.516096    22.471806     4.800358 
    7500    1.0031198   0.45256099    20.514429    22.471664    4.7869657 
    7600    1.0008223   0.45446941    20.516275    22.471972    4.8124886 
    7700    1.0004034   0.45348778    20.516417    22.470504    4.8046498 
    7800    1.0025227   0.45327112    20.515281     22.47233    4.8249595 
    7900    1.0019022   0.45317982    20.516258    22.472285    4.7978183 
    8000   0.99914669    0.4549129    20.515722    22.469349    4.8029144 
    8100     1.001446   0.45122383    20.513764    22.467151    4.7837229 
    8200   0.99953497   0.45213404    20.516147    22.467578    4.7992831 
    8300    1.0004792   0.45421593    20.511537    22.466466    4.7847184 
    8400    1.0006513   0.45129699    20.514886    22.467155    4.7763574 
    8500   0.99874521   0.45413515    20.515714    22.467962    4.8123545 
    8600   0.99940958   0.45378275    20.514701    22.467592    4.7953089 
    8700    1.0010247   0.45403048    20.514925    22.470487    4.8042075 
    8800    1.0004454    0.4526939    20.514512    22.467869    4.7821235 
    8900   0.99953086   0.45366115    20.515322    22.468274    4.7858679 
    9000   0.99938818    0.4528176     20.51479    22.466684    4.7914336 
    9100     1.000734   0.45190771    20.514188    22.467191    4.7639459 
    9200    1.0008195   0.45155773    20.515636    22.468417    4.7651555 
    9300   0.99733997   0.45433188    20.517385    22.467721    4.8231734 
    9400   0.99910601   0.45509934    20.515047    22.468799    4.8159562 
    9500   0.99956918    0.4540966    20.514275    22.467719    4.7664162 
    9600    1.0003716   0.45054186    20.516728    22.467821     4.763733 
    9700    1.0005006   0.45219557    20.517556    22.470497    4.7493829 
    9800    1.0004624    0.4525475    20.515685     22.46892    4.7921368 
    9900   0.99935889   0.45332723    20.516207    22.468567    4.8034773 
   10000      1.00072   0.45339248    20.513745    22.468212    4.7887438 
Loop time of 36.036 on 16 procs for 10000 steps with 256000 atoms

Performance: 287712.146 tau/day, 277.500 timesteps/s
99.4% CPU use with 16 MPI tasks x 1 OpenMP threads

MPI task timing breakdown:
Section |  min time  |  avg time  |  max time  |%varavg| %total
---------------------------------------------------------------
Pair    | 10.073     | 10.224     | 10.352     |   1.8 | 28.37
Bond    | 1.7678     | 1.7861     | 1.8102     |   0.9 |  4.96
Neigh   | 9.3363     | 9.3677     | 9.3953     |   0.5 | 26.00
Comm    | 5.3473     | 5.5023     | 5.6994     |   3.3 | 15.27
Output  | 0.011681   | 0.012517   | 0.01365    |   0.5 |  0.03
Modify  | 7.8512     | 7.9145     | 7.9993     |   1.2 | 21.96
Other   |            | 1.229      |            |       |  3.41

Nlocal:          16000 ave       16036 max       15968 min
Histogram: 3 1 2 1 2 1 1 1 3 1
Nghost:        6468.19 ave        6515 max        6424 min
Histogram: 1 0 1 3 6 1 1 1 0 2
Neighs:        93657.2 ave       93945 max       93366 min
Histogram: 2 1 2 2 1 1 2 2 1 2

Total # of neighbors = 1498515
Ave neighs/atom = 5.8535742
Ave special neighs/atom = 1.98
Neighbor list builds = 2581
Dangerous builds = 0
Total wall time: 0:00:36
Intel(R) VTune(TM) Profiler 2022.2.0 collection completed successfully. Use the "aps --report /home/ubuntu/lammps/bench/aps_result_20220703" command to generate textual and HTML reports for the profiling session.
