LAMMPS (7 Jan 2022)
  using 1 OpenMP thread(s) per MPI task
Reading data file ...
  orthogonal box = (0 0 0) to (40 20 37.2886)
  4 by 2 by 4 MPI processor grid
  reading atoms ...
  32000 atoms
  reading velocities ...
  32000 velocities
  read_data CPU = 0.096 seconds
912 atoms in group bottom
31088 atoms in group active
  generated 0 of 1 mixed pair_coeff terms from geometric mixing rule
Neighbor list info ...
  update every 1 steps, delay 0 steps, check yes
  max neighbors/atom: 2000, page size: 100000
  master list distance cutoff = 1.1
  ghost atom cutoff = 1.1
  binsize = 0.55, bins = 73 37 68
  1 neighbor lists, perpetual/occasional/extra = 1 0 0
  (1) pair gran/hooke/history, perpetual
      attributes: half, newton off, size, history
      pair build: half/size/bin/newtoff
      stencil: full/bin/3d
      bin: standard
Setting up Verlet run ...
  Unit style    : lj
  Current step  : 0
  Time step     : 0.0001
Per MPI rank memory allocation (min/avg/max) = 10.09 | 10.09 | 10.1 Mbytes
Step Atoms KinEng c_1 Volume 
       0    32000    784139.13    1601.1263    29833.783 
     100    32000    784292.08    1571.0968    29834.707 
     200    32000    784422.71    1573.8634     29836.23 
     300    32000    784563.48    1580.4742    29837.727 
     400    32000    784708.17    1572.2381     29839.15 
     500    32000    784831.77    1564.0479    29840.694 
     600    32000    784971.37    1564.4511    29842.232 
     700    32000     785128.6    1552.4596    29843.695 
     800    32000    785290.26    1555.2209    29845.083 
     900    32000    785460.68    1545.8818    29846.397 
    1000    32000    785572.21    1539.8672    29847.635 
    1100    32000    785702.57    1533.8018    29848.799 
    1200    32000    785822.06    1545.9335    29849.888 
    1300    32000    785929.63    1549.9353    29850.902 
    1400    32000    786011.56    1552.8199    29851.841 
    1500    32000    786107.94    1566.1477    29852.706 
    1600    32000    786190.87    1573.3323    29853.496 
    1700    32000     786268.8    1592.7949    29854.211 
    1800    32000    786324.94    1606.0429    29854.646 
    1900    32000    786375.84    1614.3405    29855.236 
    2000    32000    786433.32    1618.8664    29855.751 
    2100    32000    786487.22    1636.6867    29856.192 
    2200    32000    786552.82    1640.6512    29856.558 
    2300    32000    786614.68    1639.1751    29856.849 
    2400    32000    786690.17    1633.2069    29857.065 
    2500    32000    786750.17    1631.9148    29857.206 
    2600    32000    786796.45    1639.2933    29857.273 
    2700    32000    786838.08    1646.9333    29857.318 
    2800    32000    786860.53    1647.1181    29857.485 
    2900    32000    786893.16    1652.7969    29857.576 
    3000    32000     786906.5    1658.9692    29857.593 
    3100    32000    786943.15    1665.4243    29857.535 
    3200    32000    786983.62    1668.4481    29857.403 
    3300    32000    787048.28    1674.0903    29857.195 
    3400    32000    787120.99    1668.4904    29856.916 
    3500    32000    787199.58    1662.3337    29856.571 
    3600    32000    787268.32    1663.1661    29856.156 
    3700    32000    787327.85    1665.5269    29855.664 
    3800    32000    787379.35    1661.1961    29855.089 
    3900    32000     787427.3    1659.5642    29854.664 
    4000    32000    787489.64    1652.6733    29853.965 
    4100    32000    787518.96    1656.4978    29853.299 
    4200    32000    787529.52    1657.6172    29853.337 
    4300    32000    787558.35    1666.7092    29853.412 
    4400    32000    787584.16    1654.1844    29853.412 
    4500    32000    787598.94    1668.2557    29853.337 
    4600    32000    787597.87    1678.8142    29853.187 
    4700    32000    787622.31    1680.1444    29852.962 
    4800    32000    787635.64    1691.9312    29852.663 
    4900    32000    787647.85    1700.6368    29852.288 
    5000    32000    787673.74    1701.6976    29851.839 
    5100    32000    787705.45    1705.7055    29851.316 
    5200    32000    787753.89    1710.0969    29850.717 
    5300    32000    787798.37    1725.6906    29850.043 
    5400    32000    787864.72    1723.2607     29849.31 
    5500    32000    787922.85    1726.3355    29848.489 
    5600    32000    787996.72    1718.8792    29847.592 
    5700    32000    788065.27    1721.8115    29846.953 
    5800    32000    788151.46    1708.0715    29846.199 
    5900    32000    788227.92    1707.3826    29845.688 
    6000    32000    788310.88    1693.6559    29845.108 
    6100    32000    788386.78    1687.2798    29844.469 
    6200    32000    788452.89    1690.6744    29843.759 
    6300    32000    788536.06    1684.5553    29842.979 
    6400    32000    788616.29    1679.4362    29842.128 
    6500    32000    788693.44     1675.414    29841.019 
    6600    32000    788785.31    1659.6486    29840.335 
    6700    32000    788875.42    1655.3377     29839.58 
    6800    32000    788948.69    1658.2422    29838.738 
    6900    32000    789019.65    1661.7893    29838.129 
    7000    32000    789102.62    1658.8498    29837.154 
    7100    32000    789186.38    1651.0991    29836.104 
    7200    32000    789260.19     1652.621    29834.979 
    7300    32000    789334.19    1648.1694    29833.779 
    7400    32000    789419.37    1643.1667    29832.505 
    7500    32000    789483.68    1639.5341    29831.155 
    7600    32000    789536.11    1640.9251    29829.731 
    7700    32000    789594.91    1642.1565    29828.232 
    7800    32000    789612.42    1652.8955    29826.658 
    7900    32000    789659.49    1651.2199     29825.01 
    8000    32000    789701.91    1647.1853    29823.287 
    8100    32000    789733.08    1647.5303    29821.488 
    8200    32000    789775.19     1652.991    29819.615 
    8300    32000    789803.62    1659.8907    29817.668 
    8400    32000    789839.21    1650.7543    29816.229 
    8500    32000     789857.6    1652.2513    29815.478 
    8600    32000    789883.84     1662.124    29814.661 
    8700    32000    789876.98    1667.3718    29813.789 
    8800    32000    789866.96    1689.0097    29812.846 
    8900    32000    789852.59    1685.6545    29811.832 
    9000    32000     789824.8    1690.8365    29810.749 
    9100    32000    789794.84    1685.4222    29809.594 
    9200    32000     789757.6    1702.9725     29808.37 
    9300    32000    789717.83    1721.0414    29807.074 
    9400    32000    789704.93     1725.152    29805.709 
    9500    32000    789671.27    1718.3913    29804.273 
    9600    32000    789645.31    1717.8173    29802.766 
    9700    32000    789617.86    1721.2403    29801.189 
    9800    32000     789595.2    1715.7952    29802.979 
    9900    32000     789553.3     1727.141    29806.362 
   10000    32000    789517.27    1726.8986    29809.738 
Loop time of 1.47219 on 32 procs for 10000 steps with 32000 atoms

Performance: 58688.023 tau/day, 6792.595 timesteps/s
99.2% CPU use with 32 MPI tasks x 1 OpenMP threads

MPI task timing breakdown:
Section |  min time  |  avg time  |  max time  |%varavg| %total
---------------------------------------------------------------
Pair    | 0.23828    | 0.46619    | 0.59356    |  16.2 | 31.67
Neigh   | 0.16657    | 0.2174     | 0.23914    |   3.9 | 14.77
Comm    | 0.27214    | 0.30499    | 0.32182    |   3.1 | 20.72
Output  | 0.0023305  | 0.0039596  | 0.0069577  |   2.2 |  0.27
Modify  | 0.16054    | 0.20844    | 0.22243    |   3.7 | 14.16
Other   |            | 0.2712     |            |       | 18.42

Nlocal:           1000 ave        1021 max         974 min
Histogram: 4 0 2 4 5 3 2 3 3 6
Nghost:        753.781 ave         874 max         650 min
Histogram: 16 0 0 0 0 0 0 0 12 4
Neighs:        3945.44 ave        4257 max        3511 min
Histogram: 8 0 0 1 3 4 0 1 6 9

Total # of neighbors = 126254
Ave neighs/atom = 3.9454375
Neighbor list builds = 296
Dangerous builds = 0
Total wall time: 0:00:01
Intel(R) VTune(TM) Profiler 2022.2.0 collection completed successfully. Use the "aps --report /home/ubuntu/lammps/bench/aps_result_20220703" command to generate textual and HTML reports for the profiling session.
