LAMMPS (7 Jan 2022)
  using 1 OpenMP thread(s) per MPI task
Reading data file ...
  orthogonal box = (-16.796 -16.796 -16.796) to (16.796 16.796 16.796)
  2 by 2 by 4 MPI processor grid
  reading atoms ...
  32000 atoms
  reading velocities ...
  32000 velocities
  scanning bonds ...
  1 = max bonds/atom
  reading bonds ...
  31680 bonds
Finding 1-2 1-3 1-4 neighbors ...
  special bond factors lj:    0        1        1       
  special bond factors coul:  0        1        1       
     2 = max # of 1-2 neighbors
     2 = max # of special neighbors
  special bonds CPU = 0.002 seconds
  read_data CPU = 0.120 seconds
----------------------------------------------------------
Using INTEL Package without Coprocessor.
Compiler: Intel Classic C++ 20.21.5 / Intel(R) C++ g++ 9.3 mode
SIMD compiler directives: Enabled
Precision: mixed
----------------------------------------------------------
  generated 0 of 0 mixed pair_coeff terms from geometric mixing rule
Neighbor list info ...
  update every 1 steps, delay 1 steps, check yes
  max neighbors/atom: 2000, page size: 100000
  master list distance cutoff = 1.52
  ghost atom cutoff = 1.52
  binsize = 0.76, bins = 45 45 45
  1 neighbor lists, perpetual/occasional/extra = 1 0 0
  (1) pair lj/cut/intel, perpetual
      attributes: half, newton on, intel
      pair build: half/bin/newton/intel
      stencil: half/bin/3d
      bin: intel
Setting up Verlet run ...
  Unit style    : lj
  Current step  : 0
  Time step     : 0.012
WARNING: Communication cutoff 1.52 is shorter than a bond length based estimate of 1.855. This may lead to errors. (../comm.cpp:723)
Per MPI rank memory allocation (min/avg/max) = 21.26 | 21.44 | 21.58 Mbytes
Step Temp E_pair E_mol TotEng Press 
       0   0.97029772   0.44484085    20.494523    22.394765    4.6721835 
     100   0.97460628    0.4379072    20.507359     22.40713    4.6921818 
     200   0.97685472    0.4394627    20.503734    22.408433    4.6481091 
     300   0.98390453   0.44860373    20.502387    22.426802    4.7465124 
     400   0.98118282   0.44605697    20.507604    22.425389    4.7266766 
     500   0.98432332   0.44624527    20.508996     22.43168    4.7539501 
     600   0.98954792    0.4453013    20.508629    22.438206    4.7938885 
     700   0.98948571   0.44389012    20.509933    22.438006    4.7649557 
     800   0.99167236   0.44834889    20.504348    22.440159    4.7240983 
     900   0.98942805   0.44543494    20.511663    22.441193        4.687 
    1000   0.98281561   0.45169753    20.518067    22.443942    4.8290894 
    1100   0.99740672   0.44442975    20.509968    22.450461    4.7695529 
    1200   0.99606215   0.45081918    20.511379    22.456244    4.7298552 
    1300    1.0009406   0.45333581    20.510109    22.464809    4.7755909 
    1400    1.0018549   0.45660595    20.516374    22.475715    4.8117479 
    1500      1.00989   0.44695525    20.516588    22.478331    4.7885165 
    1600    1.0026791   0.45860078    20.523168     22.48574     4.858535 
    1700    1.0085293   0.45091137       20.523    22.486658    4.7445735 
    1800    1.0033828   0.45674242    20.516461     22.47823    4.8364998 
    1900    1.0045014   0.45854633    20.516864    22.482115    4.6759605 
    2000   0.99867554   0.46298371    20.520452    22.481402    4.8740076 
    2100    1.0116416    0.4577153    20.513126    22.488256    4.8238146 
    2200    1.0116637   0.45694457    20.515653    22.490046    4.8888527 
    2300     1.017264   0.45478421    20.512148    22.492781    4.8266393 
    2400    1.0049531   0.46084177    20.524005     22.49223    4.7480486 
    2500     1.004234   0.46691709     20.51708    22.490301    4.7859989 
    2600    1.0082827   0.45785279    20.513313    22.483543     4.809218 
    2700    1.0038467   0.45691765    20.518911    22.481551    4.7049774 
    2800    1.0125152   0.44882509    20.513807    22.481358    4.7618839 
    2900    1.0041458   0.44676201    20.520359    22.473293    4.7667674 
    3000    1.0039203   0.45198361    20.510459    22.468276    4.7784253 
    3100    1.0037725   0.45450657    20.510606    22.470724    4.7794458 
    3200   0.99718852   0.46391873    20.516677    22.476332    4.7476501 
    3300   0.99930424   0.46114727    20.512407    22.472464    4.7836552 
    3400   0.99555507   0.45624326    20.519928    22.469458    4.7988926 
    3500    1.0047033   0.45008786    20.512692    22.469788    4.7122121 
    3600    1.0050129   0.45386888     20.50989    22.471231     4.799089 
    3700    1.0002455   0.44877305    20.511848    22.460942    4.7929688 
    3800   0.99979886   0.45374375    20.511551    22.464947    4.7429541 
    3900    1.0018699   0.45433273    20.510187    22.467277    4.8197503 
    4000     1.002685     0.456195    20.514509    22.474685    4.8744014 
    4100    1.0031786   0.45174061    20.519819    22.476281    4.8304802 
    4200    1.0065966   0.45471387    20.513481    22.478043    4.8659488 
    4300    1.0051674   0.45377201    20.515961    22.477437    4.7931865 
    4400    1.0075145   0.45146571    20.521605    22.484295    4.8078374 
    4500    1.0111845   0.45397439     20.51359    22.484294    4.7106743 
    4600    1.0017937   0.45960087    20.521514    22.483759    4.7867936 
    4700    1.0089092      0.45669    20.513013    22.483019    4.9308321 
    4800    1.0073348    0.4568156    20.517076    22.484847    4.7275588 
    4900    1.0042228    0.4505826    20.520348    22.477218    4.8364418 
    5000    1.0032895   0.45280583    20.518783    22.476476    4.8491386 
    5100    1.0024219   0.45426717    20.516815    22.474668     4.723085 
    5200    1.0066848   0.45403966    20.510325    22.474345    4.8230628 
    5300    1.0079184   0.44726314    20.519147     22.47824    4.6472824 
    5400    1.0031566   0.45459963    20.518413    22.477701    4.7471682 
    5500    1.0036709   0.45679424    20.516357     22.47861    4.8035288 
    5600    1.0092155   0.44899857    20.517177    22.479952    4.7285497 
    5700    1.0059061   0.45191087    20.512613    22.473336    4.7446284 
    5800    1.0062264   0.45480686    20.514444    22.478543    4.8451434 
    5900    1.0050143   0.45771578    20.517268    22.482458    4.8229842 
    6000    1.0080988    0.4557065     20.51645    22.484258    4.8719084 
    6100    0.9986389   0.45725828    20.518025    22.473195    4.8026701 
    6200    1.0085433   0.45716985    20.513167    22.483104    4.7055243 
    6300    1.0050961   0.45434656    20.519312    22.481256    4.7973635 
    6400    1.0094308   0.45394989    20.517964    22.486013    4.8240431 
    6500    1.0053356   0.46080891    20.521364    22.490129    4.8800991 
    6600    1.0025681    0.4585023    20.520976    22.483283    4.7968567 
    6700    1.0029767   0.45664977     20.51857    22.479638     4.811447 
    6800    1.0060646   0.45352737    20.522038    22.484615    4.8715432 
    6900    1.0075611   0.45848588    20.511691    22.481471    4.8522776 
    7000    1.0063545   0.46037627    20.514132    22.483993    4.7542354 
    7100    1.0050278   0.45275244    20.527165    22.487412    4.8026168 
    7200    1.0139499   0.45708132    20.516531     22.49449    4.8278704 
    7300    1.0080528   0.45862899    20.523788    22.494449    4.8164825 
    7400    1.0158885   0.45740289    20.517817    22.499005     4.854167 
    7500    1.0094915   0.45788267    20.523067     22.49514    4.8462385 
    7600    1.0100313   0.45532395     20.52099    22.491313    4.7876564 
    7700    1.0021095   0.46037026    20.520841    22.484329    4.7543716 
    7800    1.0013526   0.46148903    20.520622    22.484093    4.7815872 
    7900    1.0057777    0.4563529    20.519756    22.484728    4.7570674 
    8000     1.001295   0.46026183     20.52014    22.482297    4.7807411 
    8100    1.0087841   0.45236188    20.516408    22.481899    4.7628903 
    8200    1.0044302   0.45631107    20.517999    22.480908    4.8173061 
    8300    1.0021218   0.45102645    20.519847    22.474009    4.7007332 
    8400    1.0021137   0.45444063    20.517217    22.474781    4.8242218 
    8500    1.0001272   0.45264824    20.518185    22.470977    4.8645196 
    8600   0.99911484   0.45772179     20.51011    22.466457    4.7712553 
    8700   0.99765434   0.45217849    20.516696    22.465309    4.7639403 
    8800   0.99291605   0.45559606    20.515728    22.460652     4.924503 
    8900   0.99317654   0.45312627    20.512477    22.455321    4.8374777 
    9000   0.99571383   0.45185067    20.514619    22.459993    4.7833111 
    9100   0.99826917   0.44871297    20.516335    22.462405    4.8171777 
    9200    0.9976765   0.45733403    20.514859    22.468661    4.7676931 
    9300    1.0007178   0.45615585    20.512744     22.46993    4.7306866 
    9400    1.0031154   0.45772607    20.514407     22.47676    4.7905847 
    9500    1.0018527    0.4534901    20.521996    22.478218    4.6995682 
    9600    1.0032883    0.4606854    20.517866    22.483437    4.8085833 
    9700    1.0044612   0.45572706    20.520671    22.483043    4.8224387 
    9800    1.0085218   0.44806285     20.51815    22.478948      4.73519 
    9900    1.0001991    0.4585824    20.516229    22.475063    4.8402835 
   10000    1.0059505   0.45361017    20.512067    22.474556    4.8405302 
Loop time of 5.08205 on 16 procs for 10000 steps with 32000 atoms

Performance: 2040121.466 tau/day, 1967.710 timesteps/s
98.5% CPU use with 16 MPI tasks x 1 OpenMP threads

MPI task timing breakdown:
Section |  min time  |  avg time  |  max time  |%varavg| %total
---------------------------------------------------------------
Pair    | 1.2381     | 1.3587     | 1.4293     |   3.2 | 26.73
Bond    | 0.21128    | 0.23148    | 0.24774    |   1.4 |  4.55
Neigh   | 1.3299     | 1.3326     | 1.3352     |   0.1 | 26.22
Comm    | 0.8181     | 0.89107    | 0.99861    |   3.9 | 17.53
Output  | 0.0024833  | 0.0030838  | 0.004572   |   1.0 |  0.06
Modify  | 0.9712     | 1.0661     | 1.1057     |   2.7 | 20.98
Other   |            | 0.1991     |            |       |  3.92

Nlocal:           2000 ave        2009 max        1986 min
Histogram: 1 0 1 0 3 2 2 3 2 2
Nghost:        1797.69 ave        1824 max        1780 min
Histogram: 2 0 3 5 3 0 0 1 1 1
Neighs:        11710.1 ave       11861 max       11482 min
Histogram: 1 0 2 0 2 4 1 3 1 2

Total # of neighbors = 187361
Ave neighs/atom = 5.8550312
Ave special neighs/atom = 1.98
Neighbor list builds = 2509
Dangerous builds = 0
Total wall time: 0:00:05
Intel(R) VTune(TM) Profiler 2022.2.0 collection completed successfully. Use the "aps --report /home/ubuntu/lammps/bench/aps_result_20220703" command to generate textual and HTML reports for the profiling session.
