LAMMPS (7 Jan 2022)
  using 1 OpenMP thread(s) per MPI task
Reading data file ...
  orthogonal box = (0 0 0) to (40 20 37.2886)
  2 by 1 by 1 MPI processor grid
  reading atoms ...
  32000 atoms
  reading velocities ...
  32000 velocities
  read_data CPU = 0.164 seconds
Replicating atoms ...
  orthogonal box = (0 0 0) to (160 80 37.292229)
  2 by 1 by 1 MPI processor grid
  512000 atoms
  replicate CPU = 0.068 seconds
14592 atoms in group bottom
497408 atoms in group active
  generated 0 of 1 mixed pair_coeff terms from geometric mixing rule
Neighbor list info ...
  update every 1 steps, delay 0 steps, check yes
  max neighbors/atom: 2000, page size: 100000
  master list distance cutoff = 1.1
  ghost atom cutoff = 1.1
  binsize = 0.55, bins = 291 146 68
  1 neighbor lists, perpetual/occasional/extra = 1 0 0
  (1) pair gran/hooke/history, perpetual
      attributes: half, newton off, size, history
      pair build: half/size/bin/newtoff
      stencil: full/bin/3d
      bin: standard
Setting up Verlet run ...
  Unit style    : lj
  Current step  : 0
  Time step     : 0.0001
Per MPI rank memory allocation (min/avg/max) = 119.6 | 119.6 | 119.6 Mbytes
Step Atoms KinEng c_1 Volume 
       0   512000     12546226    25618.021    477340.53 
     100   512000     12548673    25137.549    477355.32 
Loop time of 4.15522 on 2 procs for 100 steps with 512000 atoms

Performance: 207.931 tau/day, 24.066 timesteps/s
68.4% CPU use with 2 MPI tasks x 1 OpenMP threads

MPI task timing breakdown:
Section |  min time  |  avg time  |  max time  |%varavg| %total
---------------------------------------------------------------
Pair    | 1.1864     | 1.6395     | 2.0925     |  35.4 | 39.46
Neigh   | 0.28873    | 0.39096    | 0.49318    |  16.3 |  9.41
Comm    | 0.1233     | 0.12413    | 0.12496    |   0.2 |  2.99
Output  | 0.0011258  | 0.009112   | 0.017098   |   8.4 |  0.22
Modify  | 0.55092    | 0.81943    | 1.0879     |  29.7 | 19.72
Other   |            | 1.172      |            |       | 28.21

Nlocal:         256000 ave      256000 max      256000 min
Histogram: 2 0 0 0 0 0 0 0 0 0
Nghost:          14237 ave       14237 max       14237 min
Histogram: 2 0 0 0 0 0 0 0 0 0
Neighs:         898713 ave      898713 max      898713 min
Histogram: 2 0 0 0 0 0 0 0 0 0

Total # of neighbors = 1797426
Ave neighs/atom = 3.5105977
Neighbor list builds = 2
Dangerous builds = 0
Total wall time: 0:00:04
Intel(R) VTune(TM) Profiler 2022.2.0 collection completed successfully. Use the "aps --report /home/ubuntu/lammps/bench/aps_result_20220526" command to generate textual and HTML reports for the profiling session.
