LAMMPS (7 Jan 2022)
  using 1 OpenMP thread(s) per MPI task
Reading data file ...
  orthogonal box = (0 0 0) to (40 20 37.2886)
  2 by 1 by 2 MPI processor grid
  reading atoms ...
  32000 atoms
  reading velocities ...
  32000 velocities
  read_data CPU = 0.113 seconds
Replicating atoms ...
  orthogonal box = (0 0 0) to (80 40 37.292229)
  2 by 2 by 1 MPI processor grid
  128000 atoms
  replicate CPU = 0.018 seconds
3648 atoms in group bottom
124352 atoms in group active
  generated 0 of 1 mixed pair_coeff terms from geometric mixing rule
Neighbor list info ...
  update every 1 steps, delay 0 steps, check yes
  max neighbors/atom: 2000, page size: 100000
  master list distance cutoff = 1.1
  ghost atom cutoff = 1.1
  binsize = 0.55, bins = 146 73 68
  1 neighbor lists, perpetual/occasional/extra = 1 0 0
  (1) pair gran/hooke/history, perpetual
      attributes: half, newton off, size, history
      pair build: half/size/bin/newtoff
      stencil: full/bin/3d
      bin: standard
Setting up Verlet run ...
  Unit style    : lj
  Current step  : 0
  Time step     : 0.0001
Per MPI rank memory allocation (min/avg/max) = 23.76 | 23.76 | 23.76 Mbytes
Step Atoms KinEng c_1 Volume 
       0   128000    3136556.5    6404.5051    119335.13 
     100   128000    3137168.3    6284.3873    119338.83 
     200   128000    3137690.9    6295.4536    119344.92 
     300   128000    3138253.9    6321.8969    119350.91 
     400   128000    3138832.7    6288.9526     119356.6 
     500   128000    3139327.1    6256.1914    119362.78 
     600   128000    3139885.5    6257.8044    119368.93 
     700   128000    3140514.4    6209.8384    119374.78 
     800   128000      3141161    6220.8836    119380.33 
     900   128000    3141842.7    6183.5273    119385.59 
    1000   128000    3142288.8    6159.4689    119390.54 
    1100   128000    3142810.3    6135.2073     119395.2 
    1200   128000    3143288.2    6183.7341    119399.55 
    1300   128000    3143718.5    6199.7412    119403.61 
    1400   128000    3144046.3    6211.2795    119407.37 
    1500   128000    3144431.8      6264.59    119410.83 
    1600   128000    3144763.5    6293.3333    119413.98 
    1700   128000    3145075.2     6371.173    119416.84 
    1800   128000    3145299.8    6424.1455    119418.58 
    1900   128000    3145503.5    6457.3243    119420.94 
    2000   128000    3145733.4    6475.4013    119423.01 
    2100   128000    3145949.1    6546.7804    119424.77 
    2200   128000    3146210.8    6562.6626    119426.23 
    2300   128000    3146458.4    6556.3613     119427.4 
    2400   128000    3146759.6    6534.0278    119428.26 
    2500   128000    3147000.8    6528.1875    119428.83 
    2600   128000    3147183.6    6556.5297    119429.09 
    2700   128000    3147337.4    6595.7058    119429.27 
    2800   128000    3147430.1    6600.9567    119429.94 
    2900   128000    3147555.4    6615.0584    119430.31 
    3000   128000    3147616.9    6617.2421    119430.37 
    3100   128000    3147738.6    6667.0923    119430.14 
    3200   128000    3147893.3    6702.5562    119429.61 
    3300   128000    3148167.3    6678.7409    119428.78 
    3400   128000    3148450.7    6665.0298    119427.66 
    3500   128000    3148744.2    6653.5087    119426.29 
    3600   128000    3149006.5    6630.4512    119424.62 
    3700   128000    3149247.6    6621.6947    119422.68 
    3800   128000      3149428    6656.0378    119420.38 
    3900   128000    3149611.4    6668.8157    119417.79 
    4000   128000    3149795.5    6657.1218     119415.9 
    4100   128000    3149914.7    6642.9752    119416.23 
    4200   128000    3149986.4    6642.8992    119416.71 
    4300   128000    3150079.5    6626.9868    119416.88 
    4400   128000    3150098.1    6630.9567    119416.76 
    4500   128000    3150133.3    6656.3775    119416.34 
    4600   128000    3150149.6    6685.5352    119415.62 
    4700   128000      3150221    6693.5759     119414.6 
    4800   128000    3150291.7    6705.5844    119413.45 
    4900   128000    3150370.3      6735.15    119412.44 
    5000   128000    3150496.2    6779.5338    119411.12 
    5100   128000    3150647.1    6808.8068    119409.51 
    5200   128000    3150842.7    6837.1598     119407.6 
    5300   128000    3151055.3    6837.3569    119405.38 
    5400   128000    3151324.7    6864.9804    119402.87 
    5500   128000    3151578.7    6868.7513    119400.06 
    5600   128000    3151807.2    6868.9066    119396.95 
    5700   128000    3152017.9    6880.3991    119394.71 
    5800   128000    3152265.8    6867.2626     119391.1 
    5900   128000    3152504.5    6852.6734    119390.97 
    6000   128000    3152759.9    6846.6641    119390.95 
    6100   128000    3153057.7    6822.7413    119390.48 
    6200   128000    3153362.7    6800.3035    119389.81 
    6300   128000    3153666.8    6780.5836    119388.85 
    6400   128000    3153954.2    6768.2148     119387.6 
    6500   128000    3154273.1    6741.3371    119386.08 
    6600   128000    3154597.8    6723.6508    119384.27 
    6700   128000    3154941.8    6719.2517    119382.19 
    6800   128000    3155291.8    6699.4947    119379.77 
    6900   128000      3155633    6663.7109    119377.02 
    7000   128000    3155945.3    6653.9962    119373.98 
    7100   128000    3156281.5    6629.2016    119371.79 
    7200   128000    3156604.5    6615.1899    119368.25 
    7300   128000    3156903.1    6597.8841    119365.23 
    7400   128000    3157186.5    6580.1662    119363.86 
    7500   128000    3157457.4    6561.4206    119362.19 
    7600   128000      3157707    6565.5778    119360.22 
    7700   128000    3157903.2    6562.5241    119357.95 
    7800   128000    3158129.8    6571.7129    119355.38 
    7900   128000      3158304    6573.7174    119352.52 
    8000   128000    3158439.3    6607.6469    119349.38 
    8100   128000    3158535.8    6604.6916    119346.03 
    8200   128000    3158636.2     6632.313    119342.39 
    8300   128000    3158751.4    6629.0596    119338.47 
    8400   128000      3158844    6645.7701    119334.27 
    8500   128000    3158923.8    6649.0222    119329.73 
    8600   128000    3158968.2    6654.4989    119324.97 
    8700   128000    3158963.8    6667.3151    119319.92 
    8800   128000    3158914.8    6701.2573    119314.58 
    8900   128000    3158818.5    6744.1602    119308.97 
    9000   128000      3158718    6762.5988    119303.07 
    9100   128000    3158581.9    6790.6089    119296.89 
    9200   128000      3158385    6837.1993    119290.43 
    9300   128000    3158212.8     6887.813    119283.69 
    9400   128000    3158025.7    6928.2575    119276.67 
    9500   128000    3157820.5    6956.4523    119269.36 
    9600   128000    3157625.5    6981.9706    119261.77 
    9700   128000    3157414.9    6996.0467    119253.91 
    9800   128000    3157253.2    6994.0264    119242.97 
    9900   128000    3157097.4    6978.0729    119234.45 
   10000   128000    3156980.6    6985.9594    119236.96 
Loop time of 30.3953 on 4 procs for 10000 steps with 128000 atoms

Performance: 2842.540 tau/day, 328.998 timesteps/s
99.9% CPU use with 4 MPI tasks x 1 OpenMP threads

MPI task timing breakdown:
Section |  min time  |  avg time  |  max time  |%varavg| %total
---------------------------------------------------------------
Pair    | 15.543     | 15.71      | 15.92      |   4.0 | 51.68
Neigh   | 5.0489     | 5.0654     | 5.1055     |   1.0 | 16.66
Comm    | 1.749      | 1.7608     | 1.7685     |   0.6 |  5.79
Output  | 0.015569   | 0.018246   | 0.021075   |   1.8 |  0.06
Modify  | 5.6464     | 5.797      | 5.9662     |   6.2 | 19.07
Other   |            | 2.044      |            |       |  6.73

Nlocal:          32000 ave       32013 max       31983 min
Histogram: 1 0 0 0 0 1 0 1 0 1
Nghost:        5494.25 ave        5513 max        5474 min
Histogram: 1 0 0 1 0 0 0 1 0 1
Neighs:         115202 ave      115300 max      115102 min
Histogram: 1 0 0 1 0 0 1 0 0 1

Total # of neighbors = 460807
Ave neighs/atom = 3.6000547
Neighbor list builds = 297
Dangerous builds = 0
Total wall time: 0:00:30
Intel(R) VTune(TM) Profiler 2022.2.0 collection completed successfully. Use the "aps --report /home/ubuntu/lammps/bench/aps_result_20220703" command to generate textual and HTML reports for the profiling session.
