LAMMPS (7 Jan 2022)
  using 1 OpenMP thread(s) per MPI task
New timer settings: style=full  mode=nosync  timeout=off
Reading data file ...
  orthogonal box = (0 0 0) to (40 20 37.2886)
  2 by 1 by 1 MPI processor grid
  reading atoms ...
  32000 atoms
  reading velocities ...
  32000 velocities
  read_data CPU = 0.120 seconds
912 atoms in group bottom
31088 atoms in group active
  generated 0 of 1 mixed pair_coeff terms from geometric mixing rule
Neighbor list info ...
  update every 1 steps, delay 0 steps, check yes
  max neighbors/atom: 2000, page size: 100000
  master list distance cutoff = 1.1
  ghost atom cutoff = 1.1
  binsize = 0.55, bins = 73 37 68
  1 neighbor lists, perpetual/occasional/extra = 1 0 0
  (1) pair gran/hooke/history, perpetual
      attributes: half, newton off, size, history
      pair build: half/size/bin/newtoff
      stencil: full/bin/3d
      bin: standard
Setting up Verlet run ...
  Unit style    : lj
  Current step  : 0
  Time step     : 0.0001
Per MPI rank memory allocation (min/avg/max) = 15.35 | 15.35 | 15.35 Mbytes
Step Atoms KinEng c_1 Volume 
       0    32000    784139.13    1601.1263    29833.783 
     100    32000    784292.08    1571.0968    29834.707 
Loop time of 0.193944 on 2 procs for 100 steps with 32000 atoms

Performance: 4454.891 tau/day, 515.612 timesteps/s
96.3% CPU use with 2 MPI tasks x 1 OpenMP threads

MPI task timing breakdown:
Section |  min time  |  avg time  |  max time  |%varavg|  %CPU | %total
-----------------------------------------------------------------------
Pair    | 0.09021    | 0.092197   | 0.094185   |   0.7 |  95.6 | 47.54
Neigh   | 0.021235   | 0.021456   | 0.021677   |   0.2 |  97.7 | 11.06
Comm    | 0.016686   | 0.016731   | 0.016775   |   0.0 |  95.4 |  8.63
Output  | 9.507e-05  | 0.00011239 | 0.00012971 |   0.0 | 100.0 |  0.06
Modify  | 0.04553    | 0.04675    | 0.047971   |   0.6 |  96.7 | 24.11
Other   |            | 0.0167     |            |       |       |  8.61

Nlocal:          16000 ave       16000 max       16000 min
Histogram: 2 0 0 0 0 0 0 0 0 0
Nghost:           3704 ave        3704 max        3704 min
Histogram: 2 0 0 0 0 0 0 0 0 0
Neighs:          58257 ave       58257 max       58257 min
Histogram: 2 0 0 0 0 0 0 0 0 0

Total # of neighbors = 116514
Ave neighs/atom = 3.6410625
Neighbor list builds = 2
Dangerous builds = 0
Total wall time: 0:00:00
Intel(R) VTune(TM) Profiler 2022.2.0 collection completed successfully. Use the "aps --report /home/ubuntu/lammps/bench/aps_result_20220519" command to generate textual and HTML reports for the profiling session.
