LAMMPS (7 Jan 2022)
  using 1 OpenMP thread(s) per MPI task
Reading data file ...
  orthogonal box = (-16.796 -16.796 -16.796) to (16.796 16.796 16.796)
  2 by 4 by 4 MPI processor grid
  reading atoms ...
  32000 atoms
  reading velocities ...
  32000 velocities
  scanning bonds ...
  1 = max bonds/atom
  reading bonds ...
  31680 bonds
Finding 1-2 1-3 1-4 neighbors ...
  special bond factors lj:    0        1        1       
  special bond factors coul:  0        1        1       
     2 = max # of 1-2 neighbors
     2 = max # of special neighbors
  special bonds CPU = 0.301 seconds
  read_data CPU = 1.196 seconds
Replicating atoms ...
  orthogonal box = (-16.796 -16.796 -16.796) to (83.98 83.98 83.98)
  4 by 2 by 4 MPI processor grid
  864000 atoms
  855360 bonds
Finding 1-2 1-3 1-4 neighbors ...
  special bond factors lj:    0        1        1       
  special bond factors coul:  0        1        1       
     2 = max # of 1-2 neighbors
     2 = max # of special neighbors
  special bonds CPU = 0.024 seconds
  replicate CPU = 0.156 seconds
----------------------------------------------------------
Using INTEL Package without Coprocessor.
Compiler: Intel Classic C++ 20.21.5 / Intel(R) C++ g++ 9.3 mode
SIMD compiler directives: Enabled
Precision: single
----------------------------------------------------------
  generated 0 of 0 mixed pair_coeff terms from geometric mixing rule
Neighbor list info ...
  update every 1 steps, delay 1 steps, check yes
  max neighbors/atom: 2000, page size: 100000
  master list distance cutoff = 1.52
  ghost atom cutoff = 1.52
  binsize = 0.76, bins = 133 133 133
  1 neighbor lists, perpetual/occasional/extra = 1 0 0
  (1) pair lj/cut/intel, perpetual
      attributes: half, newton on, intel
      pair build: half/bin/newton/intel
      stencil: half/bin/3d
      bin: intel
Setting up Verlet run ...
  Unit style    : lj
  Current step  : 0
  Time step     : 0.012
WARNING: Communication cutoff 1.52 is shorter than a bond length based estimate of 1.855. This may lead to errors. (../comm.cpp:723)
Per MPI rank memory allocation (min/avg/max) = 241.3 | 241.8 | 242.3 Mbytes
Step Temp E_pair E_mol TotEng Press 
       0   0.97026852   0.44484012    20.494709     22.39495    4.6721843 
     100   0.97320093   0.44234331    20.503172    22.405315    4.6832507 
Loop time of 2.32575 on 32 procs for 100 steps with 864000 atoms

Performance: 44579.151 tau/day, 42.997 timesteps/s
89.8% CPU use with 32 MPI tasks x 1 OpenMP threads

MPI task timing breakdown:
Section |  min time  |  avg time  |  max time  |%varavg| %total
---------------------------------------------------------------
Pair    | 0.17231    | 0.19008    | 0.28562    |   4.5 |  8.17
Bond    | 0.027047   | 0.029027   | 0.030194   |   0.6 |  1.25
Neigh   | 0.46259    | 0.51966    | 0.54822    |   3.8 | 22.34
Comm    | 0.46185    | 0.60591    | 0.72435    |  10.7 | 26.05
Output  | 0.00011438 | 0.0041326  | 0.016154   |  10.8 |  0.18
Modify  | 0.14166    | 0.16651    | 0.49438    |  14.8 |  7.16
Other   |            | 0.8104     |            |       | 34.85

Nlocal:          27000 ave       27086 max       26943 min
Histogram: 5 4 5 3 4 4 1 3 2 1
Nghost:        8969.06 ave        9057 max        8880 min
Histogram: 2 1 3 1 9 3 8 4 0 1
Neighs:         158161 ave      158946 max      157380 min
Histogram: 2 1 7 3 6 1 4 2 2 4

Total # of neighbors = 5061145
Ave neighs/atom = 5.8578067
Ave special neighs/atom = 1.98
Neighbor list builds = 25
Dangerous builds = 0
Total wall time: 0:00:04
Intel(R) VTune(TM) Profiler 2022.2.0 collection completed successfully. Use the "aps --report /home/ubuntu/lammps/bench/aps_result_20220531" command to generate textual and HTML reports for the profiling session.
