LAMMPS (7 Jan 2022)
  using 1 OpenMP thread(s) per MPI task
Reading data file ...
  orthogonal box = (-16.796 -16.796 -16.796) to (16.796 16.796 16.796)
  2 by 2 by 4 MPI processor grid
  reading atoms ...
  32000 atoms
  reading velocities ...
  32000 velocities
  scanning bonds ...
  1 = max bonds/atom
  reading bonds ...
  31680 bonds
Finding 1-2 1-3 1-4 neighbors ...
  special bond factors lj:    0        1        1       
  special bond factors coul:  0        1        1       
     2 = max # of 1-2 neighbors
     2 = max # of special neighbors
  special bonds CPU = 0.018 seconds
  read_data CPU = 0.892 seconds
Replicating atoms ...
  orthogonal box = (-16.796 -16.796 -16.796) to (83.98 83.98 83.98)
  2 by 2 by 4 MPI processor grid
  864000 atoms
  855360 bonds
Finding 1-2 1-3 1-4 neighbors ...
  special bond factors lj:    0        1        1       
  special bond factors coul:  0        1        1       
     2 = max # of 1-2 neighbors
     2 = max # of special neighbors
  special bonds CPU = 0.028 seconds
  replicate CPU = 0.066 seconds
----------------------------------------------------------
Using INTEL Package without Coprocessor.
Compiler: Intel Classic C++ 20.21.5 / Intel(R) C++ g++ 9.3 mode
SIMD compiler directives: Enabled
Precision: double
----------------------------------------------------------
  generated 0 of 0 mixed pair_coeff terms from geometric mixing rule
Neighbor list info ...
  update every 1 steps, delay 1 steps, check yes
  max neighbors/atom: 2000, page size: 100000
  master list distance cutoff = 1.52
  ghost atom cutoff = 1.52
  binsize = 0.76, bins = 133 133 133
  1 neighbor lists, perpetual/occasional/extra = 1 0 0
  (1) pair lj/cut/intel, perpetual
      attributes: half, newton on, intel
      pair build: half/bin/newton/intel
      stencil: half/bin/3d
      bin: intel
Setting up Verlet run ...
  Unit style    : lj
  Current step  : 0
  Time step     : 0.012
WARNING: Communication cutoff 1.52 is shorter than a bond length based estimate of 1.855. This may lead to errors. (../comm.cpp:723)
Per MPI rank memory allocation (min/avg/max) = 481.2 | 481.9 | 482.6 Mbytes
Step Temp E_pair E_mol TotEng Press 
       0   0.97026852   0.44484087    20.494523    22.394765    4.6721833 
     100    0.9737816   0.44187909    20.502361    22.404911    4.6894591 
Loop time of 5.57117 on 16 procs for 100 steps with 864000 atoms

Performance: 18610.110 tau/day, 17.950 timesteps/s
81.4% CPU use with 16 MPI tasks x 1 OpenMP threads

MPI task timing breakdown:
Section |  min time  |  avg time  |  max time  |%varavg| %total
---------------------------------------------------------------
Pair    | 0.25872    | 0.30354    | 0.53466    |  14.4 |  5.45
Bond    | 0.070601   | 0.076018   | 0.088165   |   1.4 |  1.36
Neigh   | 0.71287    | 0.73542    | 0.79596    |   2.6 | 13.20
Comm    | 1.9561     | 2.5049     | 3.093      |  20.6 | 44.96
Output  | 0.00017557 | 0.0072707  | 0.019774   |   8.6 |  0.13
Modify  | 0.28347    | 0.32126    | 0.45993    |   7.9 |  5.77
Other   |            | 1.623      |            |       | 29.13

Nlocal:          54000 ave       54108 max       53843 min
Histogram: 1 0 1 1 4 2 1 2 1 3
Nghost:        14053.9 ave       14145 max       13948 min
Histogram: 1 1 3 1 2 1 1 3 0 3
Neighs:         316333 ave      317429 max      314684 min
Histogram: 1 0 2 2 1 3 0 2 2 3

Total # of neighbors = 5061335
Ave neighs/atom = 5.8580266
Ave special neighs/atom = 1.98
Neighbor list builds = 25
Dangerous builds = 0
Total wall time: 0:00:06
Intel(R) VTune(TM) Profiler 2022.2.0 collection completed successfully. Use the "aps --report /home/ubuntu/lammps/bench/aps_result_20220531" command to generate textual and HTML reports for the profiling session.
