LAMMPS (7 Jan 2022)
  using 1 OpenMP thread(s) per MPI task
Reading data file ...
  orthogonal box = (0 0 0) to (40 20 37.2886)
  4 by 2 by 2 MPI processor grid
  reading atoms ...
  32000 atoms
  reading velocities ...
  32000 velocities
  read_data CPU = 0.160 seconds
Replicating atoms ...
  orthogonal box = (0 0 0) to (160 80 37.292229)
  4 by 4 by 1 MPI processor grid
  512000 atoms
  replicate CPU = 0.044 seconds
14592 atoms in group bottom
497408 atoms in group active
  generated 0 of 1 mixed pair_coeff terms from geometric mixing rule
Neighbor list info ...
  update every 1 steps, delay 0 steps, check yes
  max neighbors/atom: 2000, page size: 100000
  master list distance cutoff = 1.1
  ghost atom cutoff = 1.1
  binsize = 0.55, bins = 291 146 68
  1 neighbor lists, perpetual/occasional/extra = 1 0 0
  (1) pair gran/hooke/history, perpetual
      attributes: half, newton off, size, history
      pair build: half/size/bin/newtoff
      stencil: full/bin/3d
      bin: standard
Setting up Verlet run ...
  Unit style    : lj
  Current step  : 0
  Time step     : 0.0001
Per MPI rank memory allocation (min/avg/max) = 23.78 | 23.78 | 23.78 Mbytes
Step Atoms KinEng c_1 Volume 
       0   512000     12546226    25618.021    477340.53 
     100   512000     12548673    25137.549    477355.32 
Loop time of 0.652478 on 16 procs for 100 steps with 512000 atoms

Performance: 1324.182 tau/day, 153.262 timesteps/s
93.1% CPU use with 16 MPI tasks x 1 OpenMP threads

MPI task timing breakdown:
Section |  min time  |  avg time  |  max time  |%varavg| %total
---------------------------------------------------------------
Pair    | 0.14547    | 0.18084    | 0.28787    |   6.7 | 27.72
Neigh   | 0.032518   | 0.042798   | 0.064359   |   2.9 |  6.56
Comm    | 0.026811   | 0.070977   | 0.1061     |   9.0 | 10.88
Output  | 0.00022954 | 0.0003275  | 0.00061515 |   0.0 |  0.05
Modify  | 0.067419   | 0.07843    | 0.11551    |   3.6 | 12.02
Other   |            | 0.2791     |            |       | 42.78

Nlocal:          32000 ave       32000 max       32000 min
Histogram: 16 0 0 0 0 0 0 0 0 0
Nghost:           5463 ave        5463 max        5463 min
Histogram: 16 0 0 0 0 0 0 0 0 0
Neighs:         115133 ave      115133 max      115133 min
Histogram: 16 0 0 0 0 0 0 0 0 0

Total # of neighbors = 1842128
Ave neighs/atom = 3.5979062
Neighbor list builds = 2
Dangerous builds = 0
Total wall time: 0:00:00
Intel(R) VTune(TM) Profiler 2022.2.0 collection completed successfully. Use the "aps --report /home/ubuntu/lammps/bench/aps_result_20220526" command to generate textual and HTML reports for the profiling session.
