LAMMPS (7 Jan 2022)
  using 1 OpenMP thread(s) per MPI task
Reading data file ...
  orthogonal box = (-16.796 -16.796 -16.796) to (16.796 16.796 16.796)
  4 by 4 by 4 MPI processor grid
  reading atoms ...
  32000 atoms
  reading velocities ...
  32000 velocities
  scanning bonds ...
  1 = max bonds/atom
  reading bonds ...
  31680 bonds
Finding 1-2 1-3 1-4 neighbors ...
  special bond factors lj:    0        1        1       
  special bond factors coul:  0        1        1       
     2 = max # of 1-2 neighbors
     2 = max # of special neighbors
  special bonds CPU = 0.009 seconds
  read_data CPU = 0.117 seconds
Replicating atoms ...
  orthogonal box = (-16.796 -16.796 -16.796) to (117.572 117.572 117.572)
  4 by 4 by 4 MPI processor grid
  2048000 atoms
  2027520 bonds
Finding 1-2 1-3 1-4 neighbors ...
  special bond factors lj:    0        1        1       
  special bond factors coul:  0        1        1       
     2 = max # of 1-2 neighbors
     2 = max # of special neighbors
  special bonds CPU = 0.017 seconds
  replicate CPU = 0.049 seconds
----------------------------------------------------------
Using INTEL Package without Coprocessor.
Compiler: Intel Classic C++ 20.21.5 / Intel(R) C++ g++ 9.3 mode
SIMD compiler directives: Enabled
Precision: mixed
----------------------------------------------------------
  generated 0 of 0 mixed pair_coeff terms from geometric mixing rule
Neighbor list info ...
  update every 1 steps, delay 1 steps, check yes
  max neighbors/atom: 2000, page size: 100000
  master list distance cutoff = 1.52
  ghost atom cutoff = 1.52
  binsize = 0.76, bins = 177 177 177
  1 neighbor lists, perpetual/occasional/extra = 1 0 0
  (1) pair lj/cut/intel, perpetual
      attributes: half, newton on, intel
      pair build: half/bin/newton/intel
      stencil: half/bin/3d
      bin: intel
Setting up Verlet run ...
  Unit style    : lj
  Current step  : 0
  Time step     : 0.012
WARNING: Communication cutoff 1.52 is shorter than a bond length based estimate of 1.855. This may lead to errors. (../comm.cpp:723)
Per MPI rank memory allocation (min/avg/max) = 285.7 | 285.7 | 285.7 Mbytes
Step Temp E_pair E_mol TotEng Press 
       0   0.97026787     0.444841    20.494523    22.394765    4.6721831 
     100   0.97390978   0.44149374    20.501432     22.40379     4.684977 
     200   0.97825423   0.44350501    20.502713    22.413598    4.7066442 
     300   0.98111289   0.44415858    20.505593     22.42142    4.7197447 
     400   0.98438762    0.4458795    20.506246    22.428706    4.7346041 
     500   0.98647697   0.44699117    20.509063    22.435769    4.7348827 
     600   0.98917978   0.44771876    20.509626    22.441114     4.749179 
     700   0.99136189   0.44838998    20.510139    22.445571    4.7520368 
     800    0.9918732   0.45070892    20.510551    22.449069    4.7633464 
     900   0.99375893   0.44964413    20.511356    22.451638    4.7586291 
    1000   0.99419255   0.45094437    20.512295    22.454527    4.7680425 
    1100   0.99543263   0.45063281     20.51268    22.456462    4.7671777 
    1200   0.99612356   0.45090452    20.512827    22.457916    4.7830315 
    1300    0.9966512   0.45182216    20.512761    22.459559       4.7726 
    1400   0.99717456   0.45248373    20.513466     22.46171    4.7759287 
    1500   0.99734913   0.45237542    20.513992    22.462391    4.7698618 
    1600   0.99793128   0.45246695    20.514115    22.463478     4.782794 
    1700   0.99862405   0.45253653    20.514278     22.46475     4.790756 
    1800   0.99855699   0.45335853    20.515023    22.466216    4.7852076 
    1900   0.99962079   0.45292108    20.514623    22.466975    4.7838044 
    2000   0.99953112   0.45315948    20.514529    22.466985    4.7835749 
    2100    1.0001452   0.45293833    20.514661    22.467817    4.7831498 
    2200    1.0005645   0.45239292    20.516252    22.469491    4.7857162 
    2300    1.0013498   0.45369432    20.514901    22.470619    4.7901433 
    2400    1.0002275   0.45426531    20.515793    22.470399    4.7994016 
    2500    1.0012944   0.45391126    20.515922    22.471774    4.7879811 
    2600    1.0015659   0.45378133    20.516105    22.472235    4.7971097 
    2700    1.0018956    0.4548221    20.515512    22.473176    4.8052671 
    2800    1.0012758    0.4546268     20.51616      22.4727    4.7901104 
    2900    1.0013894   0.45467391    20.515497    22.472255    4.7950264 
    3000    1.0013376   0.45401944    20.516124    22.472149     4.796685 
    3100    1.0008896   0.45442033    20.516063    22.471817    4.8003945 
    3200    1.0005747    0.4540035    20.517119    22.471984    4.7980074 
    3300    1.0025741   0.45282561    20.515401    22.472087    4.7938263 
    3400     1.002217   0.45297826    20.516131    22.472434    4.7880463 
    3500     1.002108   0.45389089    20.516151    22.473203    4.8049147 
    3600    1.0022821   0.45403283    20.515615     22.47307    4.7914163 
    3700    1.0013309    0.4544096    20.516847    22.473252    4.7905603 
    3800    1.0019973   0.45434374    20.515763    22.473102    4.7884097 
    3900    1.0020263    0.4546277     20.51572    22.473386    4.8072044 
    4000    1.0014572   0.45418478    20.516298    22.472667    4.7956223 
    4100    1.0011818   0.45421976    20.516009    22.472001    4.7929504 
    4200     1.001719   0.45318712    20.516945    22.472709    4.7867824 
    4300    1.0011372   0.45459942    20.516467    22.472772     4.798248 
    4400    1.0013982   0.45501115    20.516544    22.473651     4.795178 
    4500    1.0019415   0.45341773    20.516066    22.472395     4.800554 
    4600     1.001652   0.45395423    20.516055    22.472487    4.7901737 
    4700    1.0011217   0.45386853    20.516076    22.471627    4.7855729 
    4800    1.0010668   0.45379149    20.516845    22.472236    4.7858345 
    4900    1.0012141    0.4543115    20.516063    22.472195    4.7909587 
    5000    1.0013113   0.45338352    20.515944    22.471293    4.7902986 
    5100     1.000675   0.45367408    20.515316    22.470001    4.7770328 
    5200    1.0005618   0.45329977    20.515564    22.469706     4.793484 
    5300    1.0011197   0.45335602    20.515106    22.470141    4.8043323 
    5400    1.0003715   0.45447481     20.51611    22.471141     4.793565 
    5500    1.0018054   0.45392463    20.514921    22.471553    4.7858864 
    5600    1.0009216   0.45365521    20.516016    22.471052    4.7957019 
    5700    1.0011832    0.4533593    20.515476     22.47061    4.7933456 
    5800    1.0000971   0.45373311    20.516372     22.47025     4.781491 
    5900    1.0009112   0.45387631    20.515181    22.470423    4.7853198 
    6000    1.0008289   0.45367303    20.515437    22.470352    4.7860195 
    6100    1.0005361   0.45339272      20.5164    22.470596    4.7924615 
    6200    1.0011231   0.45400957    20.515353    22.471047    4.7993872 
    6300    1.0011272   0.45401687    20.516218    22.471925    4.7926254 
    6400    1.0012007   0.45358568    20.515974     22.47136    4.7894841 
    6500    1.0010631   0.45451335    20.515436    22.471543    4.8042316 
    6600    1.0015186   0.45338905    20.515869    22.471535    4.7872519 
    6700     1.000922   0.45322668    20.516497    22.471106    4.8026373 
    6800    1.0006773   0.45380358     20.51643    22.471249    4.7931126 
    6900    1.0014316   0.45377682    20.516338    22.472261    4.7970872 
    7000   0.99984048   0.45490943    20.516559    22.471228    4.8031821 
    7100    1.0005328   0.45333971    20.515965    22.470103    4.7951024 
    7200    1.0011675   0.45314641    20.515368    22.470265    4.7870598 
    7300   0.99983322    0.4541816    20.516026    22.469957    4.7921981 
    7400    1.0005966   0.45363255    20.514911    22.469437    4.7909785 
    7500   0.99964043   0.45384372    20.515559    22.468862    4.7868584 
    7600   0.99977412   0.45424089    20.515014    22.468916    4.8024534 
    7700   0.99960597   0.45343752    20.515304     22.46815    4.7861388 
    7800    1.0002779   0.45249172    20.515414    22.468321     4.795048 
    7900    1.0004098   0.45290376    20.515414    22.468931    4.7832946 
    8000    1.0005589   0.45352076    20.514941    22.469299    4.7934867 
    8100    1.0001636   0.45331483    20.515439    22.468998    4.7964199 
    8200   0.99983744   0.45414325     20.51523    22.469129    4.7878263 
    8300     1.000343   0.45426048    20.515117    22.469891    4.7933966 
    8400    1.0005613   0.45358436    20.515544     22.46997     4.792951 
    8500    1.0012945   0.45295511     20.51499    22.469886    4.7871411 
    8600    1.0007904   0.45351571    20.515771    22.470472     4.793386 
    8700     1.000921   0.45333457    20.515933    22.470648    4.7893223 
    8800    1.0008377   0.45367336     20.51563    22.470559    4.7882534 
    8900    1.0002399   0.45417526    20.515666      22.4702    4.7982738 
    9000    1.0000208   0.45383502    20.516798    22.470664    4.7919258 
    9100    1.0009172   0.45371045    20.516129    22.471214    4.7774667 
    9200    1.0007224    0.4541671    20.516247    22.471497    4.7923603 
    9300    1.0012074   0.45402718    20.515821    22.471659    4.7974626 
    9400     1.001607   0.45270439    20.516304    22.471418    4.7873471 
    9500    1.0018895   0.45370727    20.515587    22.472127    4.7920316 
    9600    1.0014962   0.45402536    20.515467    22.471736    4.7984286 
    9700    1.0017342    0.4537833    20.515544    22.471927    4.7897695 
    9800    1.0008782   0.45414513    20.516357    22.471819    4.7919964 
    9900    1.0014281   0.45412918    20.515342    22.471613    4.7951432 
   10000    1.0015796   0.45298078    20.515655    22.471005    4.7930814 
Loop time of 126.957 on 64 procs for 10000 steps with 2048000 atoms

Performance: 81665.586 tau/day, 78.767 timesteps/s
98.7% CPU use with 64 MPI tasks x 1 OpenMP threads

MPI task timing breakdown:
Section |  min time  |  avg time  |  max time  |%varavg| %total
---------------------------------------------------------------
Pair    | 28.647     | 29.091     | 29.771     |   4.6 | 22.91
Bond    | 5.4317     | 5.6915     | 6.1788     |   5.9 |  4.48
Neigh   | 27.859     | 27.974     | 28.051     |   0.9 | 22.03
Comm    | 31.851     | 32.756     | 33.756     |   7.8 | 25.80
Output  | 0.021955   | 0.028381   | 0.0345     |   1.9 |  0.02
Modify  | 22.235     | 23.041     | 24.651     |   7.3 | 18.15
Other   |            | 8.374      |            |       |  6.60

Nlocal:          32000 ave       32074 max       31869 min
Histogram: 1 1 3 3 12 5 9 11 12 7
Nghost:        9490.05 ave        9585 max        9422 min
Histogram: 5 7 8 8 13 11 7 1 3 1
Neighs:         187371 ave      188547 max      185901 min
Histogram: 1 1 5 9 10 4 18 10 4 2

Total # of neighbors = 11991771
Ave neighs/atom = 5.8553569
Ave special neighs/atom = 1.98
Neighbor list builds = 2966
Dangerous builds = 0
Total wall time: 0:02:07
Intel(R) VTune(TM) Profiler 2022.2.0 collection completed successfully. Use the "aps --report /home/ubuntu/lammps/bench/aps_result_20220703" command to generate textual and HTML reports for the profiling session.
