LAMMPS (7 Jan 2022)
  using 1 OpenMP thread(s) per MPI task
Reading data file ...
  orthogonal box = (-16.796 -16.796 -16.796) to (16.796 16.796 16.796)
  1 by 2 by 2 MPI processor grid
  reading atoms ...
  32000 atoms
  reading velocities ...
  32000 velocities
  scanning bonds ...
  1 = max bonds/atom
  reading bonds ...
  31680 bonds
Finding 1-2 1-3 1-4 neighbors ...
  special bond factors lj:    0        1        1       
  special bond factors coul:  0        1        1       
     2 = max # of 1-2 neighbors
     2 = max # of special neighbors
  special bonds CPU = 0.030 seconds
  read_data CPU = 0.541 seconds
Replicating atoms ...
  orthogonal box = (-16.796 -16.796 -16.796) to (50.388 50.388 50.388)
  1 by 2 by 2 MPI processor grid
  256000 atoms
  253440 bonds
Finding 1-2 1-3 1-4 neighbors ...
  special bond factors lj:    0        1        1       
  special bond factors coul:  0        1        1       
     2 = max # of 1-2 neighbors
     2 = max # of special neighbors
  special bonds CPU = 0.077 seconds
  replicate CPU = 0.161 seconds
----------------------------------------------------------
Using INTEL Package without Coprocessor.
Compiler: Intel Classic C++ 20.21.5 / Intel(R) C++ g++ 9.3 mode
SIMD compiler directives: Enabled
Precision: double
----------------------------------------------------------
  generated 0 of 0 mixed pair_coeff terms from geometric mixing rule
Neighbor list info ...
  update every 1 steps, delay 1 steps, check yes
  max neighbors/atom: 2000, page size: 100000
  master list distance cutoff = 1.52
  ghost atom cutoff = 1.52
  binsize = 0.76, bins = 89 89 89
  1 neighbor lists, perpetual/occasional/extra = 1 0 0
  (1) pair lj/cut/intel, perpetual
      attributes: half, newton on, intel
      pair build: half/bin/newton/intel
      stencil: half/bin/3d
      bin: intel
Setting up Verlet run ...
  Unit style    : lj
  Current step  : 0
  Time step     : 0.012
WARNING: Communication cutoff 1.52 is shorter than a bond length based estimate of 1.855. This may lead to errors. (../comm.cpp:723)
Per MPI rank memory allocation (min/avg/max) = 567.9 | 567.9 | 567.9 Mbytes
Step Temp E_pair E_mol TotEng Press 
       0   0.97027119   0.44484087    20.494523    22.394765    4.6721833 
     100    0.9750264   0.44175892     20.50276    22.407053    4.6919295 
Loop time of 6.19104 on 4 procs for 100 steps with 256000 atoms

Performance: 16746.774 tau/day, 16.152 timesteps/s
63.4% CPU use with 4 MPI tasks x 1 OpenMP threads

MPI task timing breakdown:
Section |  min time  |  avg time  |  max time  |%varavg| %total
---------------------------------------------------------------
Pair    | 0.26167    | 0.29111    | 0.33673    |   5.8 |  4.70
Bond    | 0.070759   | 0.078312   | 0.086152   |   2.7 |  1.26
Neigh   | 0.6934     | 0.8809     | 1.0442     |  16.0 | 14.23
Comm    | 2.217      | 2.8446     | 3.2308     |  23.7 | 45.95
Output  | 0.00014863 | 0.0055827  | 0.011015   |   7.3 |  0.09
Modify  | 0.32686    | 0.52492    | 1.0066     |  38.9 |  8.48
Other   |            | 1.566      |            |       | 25.29

Nlocal:          64000 ave       64043 max       63973 min
Histogram: 1 1 0 0 1 0 0 0 0 1
Nghost:        15534.8 ave       15554 max       15517 min
Histogram: 1 1 0 0 0 0 0 1 0 1
Neighs:         374996 ave      375182 max      374780 min
Histogram: 1 0 0 0 1 0 0 1 0 1

Total # of neighbors = 1499985
Ave neighs/atom = 5.8593164
Ave special neighs/atom = 1.98
Neighbor list builds = 25
Dangerous builds = 0
Total wall time: 0:00:07
Intel(R) VTune(TM) Profiler 2022.2.0 collection completed successfully. Use the "aps --report /home/ubuntu/lammps/bench/aps_result_20220531" command to generate textual and HTML reports for the profiling session.
