LAMMPS (7 Jan 2022)
  using 1 OpenMP thread(s) per MPI task
Reading data file ...
  orthogonal box = (0 0 0) to (40 20 37.2886)
  2 by 2 by 2 MPI processor grid
  reading atoms ...
  32000 atoms
  reading velocities ...
  32000 velocities
  read_data CPU = 0.596 seconds
Replicating atoms ...
  orthogonal box = (0 0 0) to (80 40 37.292229)
  4 by 2 by 1 MPI processor grid
  128000 atoms
  replicate CPU = 0.013 seconds
3648 atoms in group bottom
124352 atoms in group active
  generated 0 of 1 mixed pair_coeff terms from geometric mixing rule
Neighbor list info ...
  update every 1 steps, delay 0 steps, check yes
  max neighbors/atom: 2000, page size: 100000
  master list distance cutoff = 1.1
  ghost atom cutoff = 1.1
  binsize = 0.55, bins = 146 73 68
  1 neighbor lists, perpetual/occasional/extra = 1 0 0
  (1) pair gran/hooke/history, perpetual
      attributes: half, newton off, size, history
      pair build: half/size/bin/newtoff
      stencil: full/bin/3d
      bin: standard
Setting up Verlet run ...
  Unit style    : lj
  Current step  : 0
  Time step     : 0.0001
Per MPI rank memory allocation (min/avg/max) = 15.36 | 15.36 | 15.36 Mbytes
Step Atoms KinEng c_1 Volume 
       0   128000    3136556.5    6404.5051    119335.13 
     100   128000    3137168.3    6284.3873    119338.83 
Loop time of 0.534376 on 8 procs for 100 steps with 128000 atoms

Performance: 1616.839 tau/day, 187.134 timesteps/s
85.1% CPU use with 8 MPI tasks x 1 OpenMP threads

MPI task timing breakdown:
Section |  min time  |  avg time  |  max time  |%varavg| %total
---------------------------------------------------------------
Pair    | 0.066229   | 0.078629   | 0.082869   |   2.5 | 14.71
Neigh   | 0.016028   | 0.023613   | 0.047991   |   6.1 |  4.42
Comm    | 0.012955   | 0.029197   | 0.045471   |   6.7 |  5.46
Output  | 9.4287e-05 | 0.0001475  | 0.00029841 |   0.0 |  0.03
Modify  | 0.027692   | 0.033528   | 0.043723   |   2.3 |  6.27
Other   |            | 0.3693     |            |       | 69.10

Nlocal:          16000 ave       16000 max       16000 min
Histogram: 8 0 0 0 0 0 0 0 0 0
Nghost:           3704 ave        3704 max        3704 min
Histogram: 8 0 0 0 0 0 0 0 0 0
Neighs:          58257 ave       58257 max       58257 min
Histogram: 8 0 0 0 0 0 0 0 0 0

Total # of neighbors = 466056
Ave neighs/atom = 3.6410625
Neighbor list builds = 2
Dangerous builds = 0
Total wall time: 0:00:01
Intel(R) VTune(TM) Profiler 2022.2.0 collection completed successfully. Use the "aps --report /home/ubuntu/lammps/bench/aps_result_20220531" command to generate textual and HTML reports for the profiling session.
