LAMMPS (7 Jan 2022)
  using 1 OpenMP thread(s) per MPI task
New timer settings: style=full  mode=nosync  timeout=off
Reading data file ...
  orthogonal box = (-16.796 -16.796 -16.796) to (16.796 16.796 16.796)
  2 by 4 by 4 MPI processor grid
  reading atoms ...
  32000 atoms
  reading velocities ...
  32000 velocities
  scanning bonds ...
  1 = max bonds/atom
  reading bonds ...
  31680 bonds
Finding 1-2 1-3 1-4 neighbors ...
  special bond factors lj:    0        1        1       
  special bond factors coul:  0        1        1       
     2 = max # of 1-2 neighbors
     2 = max # of special neighbors
  special bonds CPU = 0.004 seconds
  read_data CPU = 0.121 seconds
Replicating atoms ...
  orthogonal box = (-16.796 -16.796 -16.796) to (117.572 117.572 117.572)
  2 by 4 by 4 MPI processor grid
  2048000 atoms
  2027520 bonds
Finding 1-2 1-3 1-4 neighbors ...
  special bond factors lj:    0        1        1       
  special bond factors coul:  0        1        1       
     2 = max # of 1-2 neighbors
     2 = max # of special neighbors
  special bonds CPU = 0.030 seconds
  replicate CPU = 0.070 seconds
----------------------------------------------------------
Using INTEL Package without Coprocessor.
Compiler: Intel Classic C++ 20.21.5 / Intel(R) C++ g++ 9.3 mode
SIMD compiler directives: Enabled
Precision: mixed
----------------------------------------------------------
  generated 0 of 0 mixed pair_coeff terms from geometric mixing rule
Neighbor list info ...
  update every 1 steps, delay 1 steps, check yes
  max neighbors/atom: 2000, page size: 100000
  master list distance cutoff = 1.52
  ghost atom cutoff = 1.52
  binsize = 0.76, bins = 177 177 177
  1 neighbor lists, perpetual/occasional/extra = 1 0 0
  (1) pair lj/cut/intel, perpetual
      attributes: half, newton on, intel
      pair build: half/bin/newton/intel
      stencil: half/bin/3d
      bin: intel
Setting up Verlet run ...
  Unit style    : lj
  Current step  : 0
  Time step     : 0.012
WARNING: Communication cutoff 1.52 is shorter than a bond length based estimate of 1.855. This may lead to errors. (../comm.cpp:723)
Per MPI rank memory allocation (min/avg/max) = 566.6 | 566.6 | 566.6 Mbytes
Step Temp E_pair E_mol TotEng Press 
       0   0.97026787     0.444841    20.494523    22.394765    4.6721831 
     100    0.9729452   0.44183494    20.501777    22.403029    4.6931229 
Loop time of 2.34248 on 32 procs for 100 steps with 2048000 atoms

Performance: 44260.689 tau/day, 42.690 timesteps/s
98.3% CPU use with 32 MPI tasks x 1 OpenMP threads

MPI task timing breakdown:
Section |  min time  |  avg time  |  max time  |%varavg|  %CPU | %total
-----------------------------------------------------------------------
Pair    | 0.58421    | 0.59599    | 0.61343    |   0.9 |  99.5 | 25.44
Bond    | 0.11623    | 0.12088    | 0.13035    |   0.9 |  99.5 |  5.16
Neigh   | 0.49189    | 0.49374    | 0.49509    |   0.1 |  99.6 | 21.08
Comm    | 0.51803    | 0.54122    | 0.56541    |   1.8 |  95.6 | 23.10
Output  | 0.0002951  | 0.0015267  | 0.0028946  |   1.9 | 100.0 |  0.07
Modify  | 0.45851    | 0.47049    | 0.49265    |   1.2 |  97.7 | 20.09
Other   |            | 0.1186     |            |       |       |  5.06

Nlocal:          64000 ave       64062 max       63944 min
Histogram: 4 1 2 6 5 4 3 3 3 1
Nghost:        15540.2 ave       15642 max       15487 min
Histogram: 4 4 5 6 9 2 1 0 0 1
Neighs:         374940 ave      375573 max      374323 min
Histogram: 2 2 5 0 6 6 4 4 2 1

Total # of neighbors = 11998076
Ave neighs/atom = 5.8584355
Ave special neighs/atom = 1.98
Neighbor list builds = 26
Dangerous builds = 0
Total wall time: 0:00:02
Intel(R) VTune(TM) Profiler 2022.2.0 collection completed successfully. Use the "aps --report /home/ubuntu/lammps/bench/aps_result_20220519" command to generate textual and HTML reports for the profiling session.
