LAMMPS (7 Jan 2022)
  using 1 OpenMP thread(s) per MPI task
Reading data file ...
  orthogonal box = (-16.796 -16.796 -16.796) to (16.796 16.796 16.796)
  1 by 2 by 2 MPI processor grid
  reading atoms ...
  32000 atoms
  reading velocities ...
  32000 velocities
  scanning bonds ...
  1 = max bonds/atom
  reading bonds ...
  31680 bonds
Finding 1-2 1-3 1-4 neighbors ...
  special bond factors lj:    0        1        1       
  special bond factors coul:  0        1        1       
     2 = max # of 1-2 neighbors
     2 = max # of special neighbors
  special bonds CPU = 0.002 seconds
  read_data CPU = 0.121 seconds
----------------------------------------------------------
Using INTEL Package without Coprocessor.
Compiler: Intel Classic C++ 20.21.5 / Intel(R) C++ g++ 9.3 mode
SIMD compiler directives: Enabled
Precision: mixed
----------------------------------------------------------
  generated 0 of 0 mixed pair_coeff terms from geometric mixing rule
Neighbor list info ...
  update every 1 steps, delay 1 steps, check yes
  max neighbors/atom: 2000, page size: 100000
  master list distance cutoff = 1.52
  ghost atom cutoff = 1.52
  binsize = 0.76, bins = 45 45 45
  1 neighbor lists, perpetual/occasional/extra = 1 0 0
  (1) pair lj/cut/intel, perpetual
      attributes: half, newton on, intel
      pair build: half/bin/newton/intel
      stencil: half/bin/3d
      bin: intel
Setting up Verlet run ...
  Unit style    : lj
  Current step  : 0
  Time step     : 0.012
WARNING: Communication cutoff 1.52 is shorter than a bond length based estimate of 1.855. This may lead to errors. (../comm.cpp:723)
Per MPI rank memory allocation (min/avg/max) = 72.51 | 72.63 | 72.81 Mbytes
Step Temp E_pair E_mol TotEng Press 
       0   0.97029772   0.44484085    20.494523    22.394765    4.6721835 
     100    0.9748729   0.44041865    20.506565    22.409248    4.6987459 
     200   0.98272552   0.44277331    20.499921    22.416736    4.7423375 
     300   0.98567899   0.44654547    20.507138    22.432156     4.807268 
     400   0.99065446   0.44086477    20.510799    22.437599     4.721549 
     500   0.98502632   0.45051687     20.50471     22.43272    4.7436393 
     600   0.99213166   0.44602205    20.512647     22.44682    4.7361913 
     700   0.98885081   0.45149097    20.516321    22.451041     4.713253 
     800   0.99611726   0.44766074     20.51346     22.45525    4.7476384 
     900   0.99688612   0.44838583    20.516286    22.459954    4.7351869 
    1000   0.99572851   0.45656175    20.510452     22.46056    4.8257369 
    1100   0.99840445   0.45290232    20.512579    22.463041    4.7570862 
    1200    1.0049529   0.44562605    20.513059    22.466068    4.7872375 
    1300    1.0015931    0.4566453    20.509269    22.468257    4.6872283 
    1400    1.0022189   0.44653296    20.513886      22.4637    4.7405073 
    1500   0.99901157   0.45197156    20.516049    22.466491    4.8486257 
    1600    1.0002431   0.45062633    20.513806     22.46475    4.7411169 
    1700   0.99684827   0.44856194    20.518363    22.462151    4.7276246 
    1800   0.99285107   0.45182279    20.516051    22.457104    4.8153855 
    1900    1.0011655   0.45855674    20.514318    22.474576    4.7904993 
    2000    1.0040099    0.4551128    20.515057    22.476138    4.8727689 
    2100    1.0055015   0.45243513    20.519428    22.480068    4.8282862 
    2200   0.99874395   0.45454786    20.518013     22.47063    4.8117287 
    2300   0.99463455   0.46263538    20.519436    22.473976    4.8495014 
    2400   0.99994584   0.44982276    20.523141    22.472836    4.7955266 
    2500    1.0070316   0.45147023    20.512113    22.474084    4.7520276 
    2600    1.0018536   0.45500319    20.515682    22.473418    4.7999162 
    2700    1.0031512   0.45837231    20.516808     22.47986     4.820631 
    2800   0.99882494   0.45695238    20.519136    22.474279    4.8568236 
    2900   0.99681023      0.45234    20.520893    22.468402     4.771626 
    3000    1.0005117   0.45242626    20.522484    22.475631    4.8479162 
    3100    1.0049712   0.45134161    20.516875    22.475627    4.7472529 
    3200   0.99980668   0.45201323    20.521689    22.473365    4.7679382 
    3300    1.0008239   0.45251039    20.512463    22.466162    4.7715649 
    3400   0.99773173    0.4496437    20.513007    22.459202    4.6627787 
    3500   0.99298886    0.4530981    20.517052    22.459587    4.7694728 
    3600     1.000072   0.45024964    20.507685    22.457996    4.8016055 
    3700    1.0022123    0.4488666    20.510729    22.462867    4.7108058 
    3800    1.0000877   0.45469003    20.508534    22.463309     4.922458 
    3900    1.0098786   0.45021735    20.508318    22.473306    4.8605436 
    4000    1.0027724   0.45118302    20.512974    22.468269    4.7487126 
    4100    1.0052416   0.45203107    20.515399    22.475246    4.7706168 
    4200    1.0073543   0.45200337    20.515489    22.478477    4.7696434 
    4300   0.99832646   0.45845617     20.51593    22.471829     4.868188 
    4400    1.0057808   0.45069888    20.512705    22.472028    4.8017501 
    4500    1.0037291   0.45734602    20.517222    22.480115    4.8189175 
    4600    1.0056745   0.45468541    20.511112    22.474262    4.7977129 
    4700       1.0012   0.45623539    20.521592    22.479581    4.8822584 
    4800    1.0029213   0.45593565    20.516474    22.476744    4.8177912 
    4900    1.0017709   0.45188339    20.523698    22.478191    4.7659286 
    5000    1.0062882   0.45666026    20.517488    22.483534    4.8287213 
    5100    1.0070813     0.453377    20.514309    22.478261     4.867223 
    5200    1.0003753   0.45736555    20.519566    22.477447    4.8456583 
    5300    1.0003612   0.45715037    20.524466    22.482111     4.766473 
    5400     1.001399   0.46176735     20.51618    22.479999    4.8636112 
    5500    1.0015315   0.45666369    20.522769    22.481683    4.7412935 
    5600   0.99662217   0.45872137    20.522615    22.476223    4.8219041 
    5700    1.0040613   0.44688506    20.519419    22.472349    4.7051812 
    5800   0.99861817   0.45593005    20.515881    22.469691    4.8627205 
    5900    1.0003591   0.45194664    20.512086    22.464524    4.7759362 
    6000    1.0008538   0.44936989    20.518351    22.468955    4.8433506 
    6100     1.001593   0.44960389    20.514409    22.466356      4.75804 
    6200   0.99620238   0.45288723    20.517283    22.464427    4.7765453 
    6300   0.99687843   0.45274455    20.519155    22.467171    4.7683512 
    6400   0.99761737   0.45529424    20.514153    22.465826    4.7639936 
    6500    1.0033283   0.45369985    20.515654      22.4743    4.8679103 
    6600    1.0038808   0.44757139    20.519415     22.47276    4.7750659 
    6700   0.99941081   0.45000179    20.518042    22.467114    4.7416539 
    6800   0.99682091   0.45117097    20.519678    22.466033    4.8158654 
    6900    1.0012999   0.45093055     20.52002    22.472853    4.8151581 
    7000   0.99392227   0.46036739    20.518503    22.469707    4.7991672 
    7100    1.0016515   0.45452331    20.512584    22.469538    4.8445308 
    7200   0.99866225     0.456437    20.511153    22.465536     4.785571 
    7300   0.99471259   0.45594132    20.517384    22.465348    4.7013937 
    7400   0.99675678   0.45501982     20.51286    22.462969    4.7741774 
    7500   0.99958118   0.45376528    20.515405    22.468496    4.7336337 
    7600    1.0000685   0.45647179    20.511367    22.467895    4.8496338 
    7700   0.99891491   0.45315082    20.512038    22.463514    4.8547823 
    7800    1.0009174   0.45466508    20.511956     22.46795    4.7353117 
    7900    0.9986322   0.46143247    20.515977    22.475311    4.8116631 
    8000    1.0036913   0.45253302    20.518613    22.476636    4.7929851 
    8100    1.0033232   0.44863417    20.518657    22.472229    4.7728442 
    8200    1.0019244    0.4633923    20.513709    22.479941    4.8069108 
    8300    1.0045204   0.45224717    20.515886    22.474867    4.8659127 
    8400      1.00425   0.45241356     20.51871    22.477452    4.7967334 
    8500    1.0021579   0.45332755    20.514754    22.471272    4.6988782 
    8600    1.0053971   0.45332581    20.510837    22.472211    4.6704717 
    8700    1.0042214   0.45375522    20.518359    22.478399    4.8144438 
    8800    1.0031223   0.45376496    20.516433    22.474834     4.809769 
    8900    1.0000297   0.45727999     20.51869    22.475968    4.7724317 
    9000   0.99761222   0.45645436    20.519786    22.472612    4.7977369 
    9100   0.99894975   0.45004304    20.517875    22.466296    4.7564259 
    9200   0.99527866    0.4497898    20.518732    22.461393    4.8746915 
    9300    1.0026923   0.45092409    20.510144    22.465059     4.728341 
    9400   0.99286649    0.4589396    20.513754    22.461947    4.8289933 
    9500   0.99353425   0.45027303    20.517037    22.457565    4.7175791 
    9600   0.99911855    0.4455915     20.51727    22.461492    4.7454271 
    9700   0.99903284   0.45006076    20.516398    22.464962    4.7448998 
    9800   0.99862903   0.46053933    20.506458    22.464894    4.9105568 
    9900    1.0029251   0.45496056    20.511752    22.471054    4.7353492 
   10000    1.0050494   0.45117785    20.518743    22.477448    4.7879463 
Loop time of 16.669 on 4 procs for 10000 steps with 32000 atoms

Performance: 621992.839 tau/day, 599.916 timesteps/s
99.7% CPU use with 4 MPI tasks x 1 OpenMP threads

MPI task timing breakdown:
Section |  min time  |  avg time  |  max time  |%varavg| %total
---------------------------------------------------------------
Pair    | 4.9887     | 5.0742     | 5.1375     |   2.4 | 30.44
Bond    | 0.86453    | 0.86868    | 0.8757     |   0.5 |  5.21
Neigh   | 4.2719     | 4.2735     | 4.2745     |   0.0 | 25.64
Comm    | 1.9605     | 2.034      | 2.1284     |   4.2 | 12.20
Output  | 0.0034872  | 0.0037042  | 0.0040734  |   0.4 |  0.02
Modify  | 3.8745     | 3.9426     | 3.989      |   2.1 | 23.65
Other   |            | 0.4723     |            |       |  2.83

Nlocal:           8000 ave        8010 max        7988 min
Histogram: 1 0 0 0 1 0 0 1 0 1
Nghost:        4157.25 ave        4174 max        4144 min
Histogram: 2 0 0 0 0 0 0 1 0 1
Neighs:        46860.2 ave       47089 max       46748 min
Histogram: 1 2 0 0 0 0 0 0 0 1

Total # of neighbors = 187441
Ave neighs/atom = 5.8575313
Ave special neighs/atom = 1.98
Neighbor list builds = 2510
Dangerous builds = 0
Total wall time: 0:00:16
Intel(R) VTune(TM) Profiler 2022.2.0 collection completed successfully. Use the "aps --report /home/ubuntu/lammps/bench/aps_result_20220703" command to generate textual and HTML reports for the profiling session.
