LAMMPS (7 Jan 2022)
  using 1 OpenMP thread(s) per MPI task
Reading data file ...
  orthogonal box = (-16.796 -16.796 -16.796) to (16.796 16.796 16.796)
  1 by 2 by 2 MPI processor grid
  reading atoms ...
  32000 atoms
  reading velocities ...
  32000 velocities
  scanning bonds ...
  1 = max bonds/atom
  reading bonds ...
  31680 bonds
Finding 1-2 1-3 1-4 neighbors ...
  special bond factors lj:    0        1        1       
  special bond factors coul:  0        1        1       
     2 = max # of 1-2 neighbors
     2 = max # of special neighbors
  special bonds CPU = 0.003 seconds
  read_data CPU = 0.116 seconds
Replicating atoms ...
  orthogonal box = (-16.796 -16.796 -16.796) to (83.98 83.98 83.98)
  2 by 1 by 2 MPI processor grid
  864000 atoms
  855360 bonds
Finding 1-2 1-3 1-4 neighbors ...
  special bond factors lj:    0        1        1       
  special bond factors coul:  0        1        1       
     2 = max # of 1-2 neighbors
     2 = max # of special neighbors
  special bonds CPU = 0.056 seconds
  replicate CPU = 0.105 seconds
----------------------------------------------------------
Using INTEL Package without Coprocessor.
Compiler: Intel Classic C++ 20.21.5 / Intel(R) C++ g++ 9.3 mode
SIMD compiler directives: Enabled
Precision: single
----------------------------------------------------------
  generated 0 of 0 mixed pair_coeff terms from geometric mixing rule
Neighbor list info ...
  update every 1 steps, delay 1 steps, check yes
  max neighbors/atom: 2000, page size: 100000
  master list distance cutoff = 1.52
  ghost atom cutoff = 1.52
  binsize = 0.76, bins = 133 133 133
  1 neighbor lists, perpetual/occasional/extra = 1 0 0
  (1) pair lj/cut/intel, perpetual
      attributes: half, newton on, intel
      pair build: half/bin/newton/intel
      stencil: half/bin/3d
      bin: intel
Setting up Verlet run ...
  Unit style    : lj
  Current step  : 0
  Time step     : 0.012
WARNING: Communication cutoff 1.52 is shorter than a bond length based estimate of 1.855. This may lead to errors. (../comm.cpp:723)
Per MPI rank memory allocation (min/avg/max) = 1899 | 1900 | 1901 Mbytes
Step Temp E_pair E_mol TotEng Press 
       0   0.97026852    0.4448303    20.496049    22.396281    4.6721795 
     100   0.97421527   0.44159285    20.503852    22.406766     4.679767 
Loop time of 5.48087 on 4 procs for 100 steps with 864000 atoms

Performance: 18916.713 tau/day, 18.245 timesteps/s
99.2% CPU use with 4 MPI tasks x 1 OpenMP threads

MPI task timing breakdown:
Section |  min time  |  avg time  |  max time  |%varavg| %total
---------------------------------------------------------------
Pair    | 1.3997     | 1.4244     | 1.4443     |   1.6 | 25.99
Bond    | 0.23506    | 0.23939    | 0.24243    |   0.6 |  4.37
Neigh   | 1.2536     | 1.2553     | 1.2574     |   0.1 | 22.90
Comm    | 1.1176     | 1.1434     | 1.1758     |   2.4 | 20.86
Output  | 0.00052335 | 0.00058051 | 0.00066037 |   0.0 |  0.01
Modify  | 1.1822     | 1.2133     | 1.2366     |   2.1 | 22.14
Other   |            | 0.2044     |            |       |  3.73

Nlocal:         216000 ave      216329 max      215710 min
Histogram: 1 0 1 0 0 0 1 0 0 1
Nghost:        34169.2 ave       34283 max       34060 min
Histogram: 1 0 0 0 1 1 0 0 0 1
Neighs:    1.26536e+06 ave 1.26901e+06 max 1.26288e+06 min
Histogram: 2 0 0 0 0 1 0 0 0 1

Total # of neighbors = 5061441
Ave neighs/atom = 5.8581493
Ave special neighs/atom = 1.98
Neighbor list builds = 25
Dangerous builds = 0
Total wall time: 0:00:05
Intel(R) VTune(TM) Profiler 2022.2.0 collection completed successfully. Use the "aps --report /home/ubuntu/lammps/bench/aps_result_20220601" command to generate textual and HTML reports for the profiling session.
