LAMMPS (7 Jan 2022)
  using 1 OpenMP thread(s) per MPI task
Reading data file ...
  orthogonal box = (0 0 0) to (40 20 37.2886)
  4 by 4 by 4 MPI processor grid
  reading atoms ...
  32000 atoms
  reading velocities ...
  32000 velocities
  read_data CPU = 0.085 seconds
Replicating atoms ...
  orthogonal box = (0 0 0) to (80 40 37.292229)
  8 by 4 by 2 MPI processor grid
  128000 atoms
  replicate CPU = 0.014 seconds
3648 atoms in group bottom
124352 atoms in group active
  generated 0 of 1 mixed pair_coeff terms from geometric mixing rule
Neighbor list info ...
  update every 1 steps, delay 0 steps, check yes
  max neighbors/atom: 2000, page size: 100000
  master list distance cutoff = 1.1
  ghost atom cutoff = 1.1
  binsize = 0.55, bins = 146 73 68
  1 neighbor lists, perpetual/occasional/extra = 1 0 0
  (1) pair gran/hooke/history, perpetual
      attributes: half, newton off, size, history
      pair build: half/size/bin/newtoff
      stencil: full/bin/3d
      bin: standard
Setting up Verlet run ...
  Unit style    : lj
  Current step  : 0
  Time step     : 0.0001
Per MPI rank memory allocation (min/avg/max) = 10.18 | 10.18 | 10.18 Mbytes
Step Atoms KinEng c_1 Volume 
       0   128000    3136556.5    6404.5051    119335.13 
     100   128000    3137168.3    6284.3873    119338.83 
     200   128000    3137690.9    6295.4536    119344.92 
     300   128000    3138253.9    6321.8969    119350.91 
     400   128000    3138832.7    6288.9526     119356.6 
     500   128000    3139327.1    6256.1914    119362.78 
     600   128000    3139885.5    6257.8044    119368.93 
     700   128000    3140514.4    6209.8384    119374.78 
     800   128000      3141161    6220.8836    119380.33 
     900   128000    3141842.7    6183.5273    119385.59 
    1000   128000    3142288.8    6159.4689    119390.54 
    1100   128000    3142810.3    6135.2073     119395.2 
    1200   128000    3143288.2    6183.7341    119399.55 
    1300   128000    3143718.5    6199.7412    119403.61 
    1400   128000    3144046.3    6211.2795    119407.37 
    1500   128000    3144431.8      6264.59    119410.83 
    1600   128000    3144763.5    6293.3333    119413.98 
    1700   128000    3145075.2    6371.1729    119416.84 
    1800   128000    3145299.8    6424.1456    119418.58 
    1900   128000    3145503.5    6457.3245    119420.94 
    2000   128000    3145733.4    6475.4032    119423.01 
    2100   128000    3145949.1    6546.7891    119424.77 
    2200   128000    3146210.8    6562.6599    119426.23 
    2300   128000    3146458.3    6556.3505     119427.4 
    2400   128000    3146759.5    6534.0425    119428.26 
    2500   128000    3147000.7    6528.2281    119428.83 
    2600   128000    3147183.5    6556.5115    119429.09 
    2700   128000      3147337    6595.6459    119429.27 
    2800   128000    3147430.6    6600.3337    119429.94 
    2900   128000    3147552.9     6615.937    119430.31 
    3000   128000    3147618.2    6615.0383    119430.37 
    3100   128000    3147736.5    6664.7196    119430.14 
    3200   128000    3147885.9    6705.3838    119429.61 
    3300   128000    3148169.1      6676.92    119428.78 
    3400   128000    3148455.9    6665.5322    119427.66 
    3500   128000    3148749.3    6655.9397    119426.29 
    3600   128000    3149034.4    6630.1135    119424.62 
    3700   128000    3149252.6    6636.8571    119422.68 
    3800   128000    3149463.5    6650.0735    119420.38 
    3900   128000    3149667.7     6648.329    119417.79 
    4000   128000    3149834.8    6639.5971    119415.89 
    4100   128000    3149961.9    6608.8276    119416.16 
    4200   128000    3150032.4    6620.3082    119416.63 
    4300   128000    3150089.7    6615.4676    119416.79 
    4400   128000    3150124.9    6633.3666    119416.66 
    4500   128000    3150131.7    6656.0016    119416.24 
    4600   128000    3150169.6    6694.8641    119415.51 
    4700   128000    3150243.8    6716.3693    119414.48 
    4800   128000    3150324.9    6724.2344    119413.15 
    4900   128000    3150417.3    6750.3965    119411.53 
    5000   128000    3150510.2    6761.7721     119409.6 
    5100   128000    3150621.8    6800.8304    119407.44 
    5200   128000    3150737.3    6834.1495    119405.93 
    5300   128000    3150911.9    6881.1962    119404.19 
    5400   128000    3151140.2    6887.8539    119402.15 
    5500   128000    3151395.8    6907.2622    119399.81 
    5600   128000    3151651.2    6904.6325    119397.18 
    5700   128000    3151895.3    6882.7047    119395.25 
    5800   128000    3152118.8    6886.5446    119392.12 
    5900   128000    3152359.6     6879.794    119388.68 
    6000   128000    3152614.8     6861.771    119384.95 
    6100   128000    3152896.5    6874.9725    119380.92 
    6200   128000      3153213    6856.1543    119378.33 
    6300   128000    3153518.4     6834.925    119377.01 
    6400   128000    3153840.5    6809.3479     119375.4 
    6500   128000    3154177.6    6770.7013    119373.52 
    6600   128000    3154541.9     6754.735    119371.35 
    6700   128000      3154912    6726.6069     119368.9 
    6800   128000    3155287.9    6706.1821    119366.15 
    6900   128000    3155668.1    6678.8884    119363.03 
    7000   128000    3156042.9    6665.6556    119359.62 
    7100   128000    3156409.9    6649.9234    119355.92 
    7200   128000    3156747.8    6634.9725    119351.91 
    7300   128000    3157069.4    6636.9126    119349.74 
    7400   128000    3157374.5    6634.5986    119348.02 
    7500   128000    3157674.4    6622.4288    119345.99 
    7600   128000    3157955.5    6603.3892    119343.67 
    7700   128000    3158222.3    6607.7008    119341.05 
    7800   128000    3158518.7    6598.5212    119338.13 
    7900   128000    3158748.5    6596.5231    119334.91 
    8000   128000    3158985.7    6574.3301    119331.43 
    8100   128000    3159178.3    6583.6939    119327.73 
    8200   128000    3159358.5    6607.1158    119323.75 
    8300   128000    3159555.6    6622.6929    119319.49 
    8400   128000    3159728.1    6625.7644    119316.25 
    8500   128000    3159878.1    6630.9081    119312.96 
    8600   128000    3159987.9    6638.8467    119309.39 
    8700   128000      3160078    6643.2512    119305.54 
    8800   128000    3160090.9    6676.0324    119301.41 
    8900   128000    3160055.4    6686.1058    119296.99 
    9000   128000    3159978.6    6722.4985     119292.3 
    9100   128000    3159888.8    6761.9052    119287.32 
    9200   128000    3159760.1    6805.3374    119282.06 
    9300   128000    3159609.4    6835.5971    119276.52 
    9400   128000    3159465.6    6861.5745    119270.69 
    9500   128000    3159373.4     6871.643    119264.59 
    9600   128000    3159247.9    6889.1657     119258.2 
    9700   128000    3159108.4    6903.8023    119251.53 
    9800   128000    3158950.6    6916.1781    119249.23 
    9900   128000      3158823    6923.8849    119247.24 
   10000   128000    3158707.8    6949.3818    119244.97 
Loop time of 2.66496 on 64 procs for 10000 steps with 128000 atoms

Performance: 32420.715 tau/day, 3752.398 timesteps/s
99.1% CPU use with 64 MPI tasks x 1 OpenMP threads

MPI task timing breakdown:
Section |  min time  |  avg time  |  max time  |%varavg| %total
---------------------------------------------------------------
Pair    | 0.69289    | 0.94621    | 1.2061     |  18.1 | 35.51
Neigh   | 0.33847    | 0.39775    | 0.44103    |   6.4 | 14.93
Comm    | 0.35099    | 0.39787    | 0.43984    |   3.1 | 14.93
Output  | 0.0032282  | 0.0064807  | 0.010005   |   2.7 |  0.24
Modify  | 0.32989    | 0.38448    | 0.42396    |   6.3 | 14.43
Other   |            | 0.5322     |            |       | 19.97

Nlocal:           2000 ave        2018 max        1982 min
Histogram: 5 10 3 6 4 10 11 5 5 5
Nghost:        1154.09 ave        1177 max        1136 min
Histogram: 2 6 15 13 6 4 6 5 4 3
Neighs:        7716.62 ave        7969 max        7388 min
Histogram: 4 5 8 10 5 0 0 9 11 12

Total # of neighbors = 493864
Ave neighs/atom = 3.8583125
Neighbor list builds = 296
Dangerous builds = 0
Total wall time: 0:00:02
Intel(R) VTune(TM) Profiler 2022.2.0 collection completed successfully. Use the "aps --report /home/ubuntu/lammps/bench/aps_result_20220703" command to generate textual and HTML reports for the profiling session.
