LAMMPS (7 Jan 2022)
  using 1 OpenMP thread(s) per MPI task
Reading data file ...
  orthogonal box = (0 0 0) to (40 20 37.2886)
  4 by 2 by 4 MPI processor grid
  reading atoms ...
  32000 atoms
  reading velocities ...
  32000 velocities
  read_data CPU = 0.352 seconds
Replicating atoms ...
  orthogonal box = (0 0 0) to (160 80 37.292229)
  8 by 4 by 1 MPI processor grid
  512000 atoms
  replicate CPU = 0.096 seconds
14592 atoms in group bottom
497408 atoms in group active
  generated 0 of 1 mixed pair_coeff terms from geometric mixing rule
Neighbor list info ...
  update every 1 steps, delay 0 steps, check yes
  max neighbors/atom: 2000, page size: 100000
  master list distance cutoff = 1.1
  ghost atom cutoff = 1.1
  binsize = 0.55, bins = 291 146 68
  1 neighbor lists, perpetual/occasional/extra = 1 0 0
  (1) pair gran/hooke/history, perpetual
      attributes: half, newton off, size, history
      pair build: half/size/bin/newtoff
      stencil: full/bin/3d
      bin: standard
Setting up Verlet run ...
  Unit style    : lj
  Current step  : 0
  Time step     : 0.0001
Per MPI rank memory allocation (min/avg/max) = 15.37 | 15.37 | 15.37 Mbytes
Step Atoms KinEng c_1 Volume 
       0   512000     12546226    25618.021    477340.53 
     100   512000     12548673    25137.549    477355.32 
Loop time of 0.986912 on 32 procs for 100 steps with 512000 atoms

Performance: 875.458 tau/day, 101.326 timesteps/s
94.6% CPU use with 32 MPI tasks x 1 OpenMP threads

MPI task timing breakdown:
Section |  min time  |  avg time  |  max time  |%varavg| %total
---------------------------------------------------------------
Pair    | 0.077545   | 0.10085    | 0.34529    |  13.9 | 10.22
Neigh   | 0.016924   | 0.021254   | 0.032794   |   1.7 |  2.15
Comm    | 0.020613   | 0.080305   | 0.14685    |  14.2 |  8.14
Output  | 0.011625   | 0.026935   | 0.027598   |   1.7 |  2.73
Modify  | 0.033724   | 0.04139    | 0.08169    |   3.8 |  4.19
Other   |            | 0.7162     |            |       | 72.57

Nlocal:          16000 ave       16000 max       16000 min
Histogram: 32 0 0 0 0 0 0 0 0 0
Nghost:           3704 ave        3704 max        3704 min
Histogram: 32 0 0 0 0 0 0 0 0 0
Neighs:          58257 ave       58257 max       58257 min
Histogram: 32 0 0 0 0 0 0 0 0 0

Total # of neighbors = 1864224
Ave neighs/atom = 3.6410625
Neighbor list builds = 2
Dangerous builds = 0
Total wall time: 0:00:01
Intel(R) VTune(TM) Profiler 2022.2.0 collection completed successfully. Use the "aps --report /home/ubuntu/lammps/bench/aps_result_20220531" command to generate textual and HTML reports for the profiling session.
