LAMMPS (7 Jan 2022)
  using 1 OpenMP thread(s) per MPI task
Reading data file ...
  orthogonal box = (-16.796 -16.796 -16.796) to (16.796 16.796 16.796)
  1 by 2 by 2 MPI processor grid
  reading atoms ...
  32000 atoms
  reading velocities ...
  32000 velocities
  scanning bonds ...
  1 = max bonds/atom
  reading bonds ...
  31680 bonds
Finding 1-2 1-3 1-4 neighbors ...
  special bond factors lj:    0        1        1       
  special bond factors coul:  0        1        1       
     2 = max # of 1-2 neighbors
     2 = max # of special neighbors
  special bonds CPU = 0.002 seconds
  read_data CPU = 0.328 seconds
Replicating atoms ...
  orthogonal box = (-16.796 -16.796 -16.796) to (117.572 117.572 117.572)
  1 by 2 by 2 MPI processor grid
  2048000 atoms
  2027520 bonds
Finding 1-2 1-3 1-4 neighbors ...
  special bond factors lj:    0        1        1       
  special bond factors coul:  0        1        1       
     2 = max # of 1-2 neighbors
     2 = max # of special neighbors
  special bonds CPU = 0.232 seconds
  replicate CPU = 0.418 seconds
----------------------------------------------------------
Using INTEL Package without Coprocessor.
Compiler: Intel Classic C++ 20.21.5 / Intel(R) C++ g++ 9.3 mode
SIMD compiler directives: Enabled
Precision: single
----------------------------------------------------------
  generated 0 of 0 mixed pair_coeff terms from geometric mixing rule
Neighbor list info ...
  update every 1 steps, delay 1 steps, check yes
  max neighbors/atom: 2000, page size: 100000
  master list distance cutoff = 1.52
  ghost atom cutoff = 1.52
  binsize = 0.76, bins = 177 177 177
  1 neighbor lists, perpetual/occasional/extra = 1 0 0
  (1) pair lj/cut/intel, perpetual
      attributes: half, newton on, intel
      pair build: half/bin/newton/intel
      stencil: half/bin/3d
      bin: intel
Setting up Verlet run ...
  Unit style    : lj
  Current step  : 0
  Time step     : 0.012
WARNING: Communication cutoff 1.52 is shorter than a bond length based estimate of 1.855. This may lead to errors. (../comm.cpp:723)
Per MPI rank memory allocation (min/avg/max) = 4492 | 4492 | 4492 Mbytes
Step Temp E_pair E_mol TotEng Press 
       0   0.97026787   0.44479915    20.468162    22.368362    4.6721748 
     100   0.97317562   0.44149731    20.476726    22.377986    4.6893213 
Loop time of 27.5237 on 4 procs for 100 steps with 2048000 atoms

Performance: 3766.932 tau/day, 3.633 timesteps/s
69.9% CPU use with 4 MPI tasks x 1 OpenMP threads

MPI task timing breakdown:
Section |  min time  |  avg time  |  max time  |%varavg| %total
---------------------------------------------------------------
Pair    | 3.2002     | 4.7496     | 6.3405     |  70.9 | 17.26
Bond    | 0.5591     | 0.85693    | 1.1653     |  32.1 |  3.11
Neigh   | 6.3115     | 6.387      | 6.4696     |   2.7 | 23.21
Comm    | 6.8429     | 8.7185     | 10.568     |  62.0 | 31.68
Output  | 0.0018787  | 0.02193    | 0.034001   |   9.0 |  0.08
Modify  | 2.6312     | 3.9561     | 5.3342     |  66.5 | 14.37
Other   |            | 2.834      |            |       | 10.30

Nlocal:         512000 ave      512028 max      511948 min
Histogram: 1 0 0 0 0 0 1 0 0 2
Nghost:        59980.5 ave       60062 max       59880 min
Histogram: 1 0 1 0 0 0 0 0 0 2
Neighs:    2.99979e+06 ave  3.0006e+06 max 2.99908e+06 min
Histogram: 2 0 0 0 0 0 0 0 1 1

Total # of neighbors = 11999161
Ave neighs/atom = 5.8589653
Ave special neighs/atom = 1.98
Neighbor list builds = 27
Dangerous builds = 0
Total wall time: 0:00:29
Intel(R) VTune(TM) Profiler 2022.2.0 collection completed successfully. Use the "aps --report /home/ubuntu/lammps/bench/aps_result_20220531" command to generate textual and HTML reports for the profiling session.
