LAMMPS (7 Jan 2022)
  using 1 OpenMP thread(s) per MPI task
Reading data file ...
  orthogonal box = (-16.796 -16.796 -16.796) to (16.796 16.796 16.796)
  2 by 2 by 2 MPI processor grid
  reading atoms ...
  32000 atoms
  reading velocities ...
  32000 velocities
  scanning bonds ...
  1 = max bonds/atom
  reading bonds ...
  31680 bonds
Finding 1-2 1-3 1-4 neighbors ...
  special bond factors lj:    0        1        1       
  special bond factors coul:  0        1        1       
     2 = max # of 1-2 neighbors
     2 = max # of special neighbors
  special bonds CPU = 0.001 seconds
  read_data CPU = 0.284 seconds
Replicating atoms ...
  orthogonal box = (-16.796 -16.796 -16.796) to (83.98 83.98 83.98)
  2 by 2 by 2 MPI processor grid
  864000 atoms
  855360 bonds
Finding 1-2 1-3 1-4 neighbors ...
  special bond factors lj:    0        1        1       
  special bond factors coul:  0        1        1       
     2 = max # of 1-2 neighbors
     2 = max # of special neighbors
  special bonds CPU = 0.089 seconds
  replicate CPU = 0.257 seconds
----------------------------------------------------------
Using INTEL Package without Coprocessor.
Compiler: Intel Classic C++ 20.21.5 / Intel(R) C++ g++ 9.3 mode
SIMD compiler directives: Enabled
Precision: single
----------------------------------------------------------
  generated 0 of 0 mixed pair_coeff terms from geometric mixing rule
Neighbor list info ...
  update every 1 steps, delay 1 steps, check yes
  max neighbors/atom: 2000, page size: 100000
  master list distance cutoff = 1.52
  ghost atom cutoff = 1.52
  binsize = 0.76, bins = 133 133 133
  1 neighbor lists, perpetual/occasional/extra = 1 0 0
  (1) pair lj/cut/intel, perpetual
      attributes: half, newton on, intel
      pair build: half/bin/newton/intel
      stencil: half/bin/3d
      bin: intel
Setting up Verlet run ...
  Unit style    : lj
  Current step  : 0
  Time step     : 0.012
WARNING: Communication cutoff 1.52 is shorter than a bond length based estimate of 1.855. This may lead to errors. (../comm.cpp:723)
Per MPI rank memory allocation (min/avg/max) = 950.4 | 951.1 | 951.7 Mbytes
Step Temp E_pair E_mol TotEng Press 
       0   0.97026852   0.44483561    20.497397    22.397634    4.6721844 
     100   0.97336877   0.44157955    20.504221    22.405852    4.6960837 
Loop time of 6.22031 on 8 procs for 100 steps with 864000 atoms

Performance: 16667.969 tau/day, 16.076 timesteps/s
79.3% CPU use with 8 MPI tasks x 1 OpenMP threads

MPI task timing breakdown:
Section |  min time  |  avg time  |  max time  |%varavg| %total
---------------------------------------------------------------
Pair    | 0.69688    | 0.81254    | 1.2134     |  21.1 | 13.06
Bond    | 0.11652    | 0.14884    | 0.25809    |  13.9 |  2.39
Neigh   | 1.2457     | 1.2742     | 1.3061     |   2.5 | 20.48
Comm    | 1.9245     | 2.2558     | 2.389      |   9.7 | 36.26
Output  | 0.00027709 | 0.012308   | 0.016337   |   6.2 |  0.20
Modify  | 0.57651    | 0.66531    | 1.0145     |  18.1 | 10.70
Other   |            | 1.051      |            |       | 16.90

Nlocal:         108000 ave      108146 max      107815 min
Histogram: 2 1 0 0 0 0 1 0 2 2
Nghost:        20755.4 ave       20842 max       20671 min
Histogram: 2 1 1 0 0 0 1 0 0 3
Neighs:         632560 ave      634073 max      630645 min
Histogram: 1 2 0 0 1 0 0 0 1 3

Total # of neighbors = 5060478
Ave neighs/atom = 5.8570347
Ave special neighs/atom = 1.98
Neighbor list builds = 25
Dangerous builds = 0
Total wall time: 0:00:07
Intel(R) VTune(TM) Profiler 2022.2.0 collection completed successfully. Use the "aps --report /home/ubuntu/lammps/bench/aps_result_20220531" command to generate textual and HTML reports for the profiling session.
