LAMMPS (7 Jan 2022)
  using 1 OpenMP thread(s) per MPI task
Reading data file ...
  orthogonal box = (-16.796 -16.796 -16.796) to (16.796 16.796 16.796)
  2 by 2 by 4 MPI processor grid
  reading atoms ...
  32000 atoms
  reading velocities ...
  32000 velocities
  scanning bonds ...
  1 = max bonds/atom
  reading bonds ...
  31680 bonds
Finding 1-2 1-3 1-4 neighbors ...
  special bond factors lj:    0        1        1       
  special bond factors coul:  0        1        1       
     2 = max # of 1-2 neighbors
     2 = max # of special neighbors
  special bonds CPU = 0.001 seconds
  read_data CPU = 0.180 seconds
Replicating atoms ...
  orthogonal box = (-16.796 -16.796 -16.796) to (117.572 117.572 117.572)
  2 by 2 by 4 MPI processor grid
  2048000 atoms
  2027520 bonds
Finding 1-2 1-3 1-4 neighbors ...
  special bond factors lj:    0        1        1       
  special bond factors coul:  0        1        1       
     2 = max # of 1-2 neighbors
     2 = max # of special neighbors
  special bonds CPU = 0.061 seconds
  replicate CPU = 0.147 seconds
----------------------------------------------------------
Using INTEL Package without Coprocessor.
Compiler: Intel Classic C++ 20.21.5 / Intel(R) C++ g++ 9.3 mode
SIMD compiler directives: Enabled
Precision: mixed
----------------------------------------------------------
  generated 0 of 0 mixed pair_coeff terms from geometric mixing rule
Neighbor list info ...
  update every 1 steps, delay 1 steps, check yes
  max neighbors/atom: 2000, page size: 100000
  master list distance cutoff = 1.52
  ghost atom cutoff = 1.52
  binsize = 0.76, bins = 177 177 177
  1 neighbor lists, perpetual/occasional/extra = 1 0 0
  (1) pair lj/cut/intel, perpetual
      attributes: half, newton on, intel
      pair build: half/bin/newton/intel
      stencil: half/bin/3d
      bin: intel
Setting up Verlet run ...
  Unit style    : lj
  Current step  : 0
  Time step     : 0.012
WARNING: Communication cutoff 1.52 is shorter than a bond length based estimate of 1.855. This may lead to errors. (../comm.cpp:723)
Per MPI rank memory allocation (min/avg/max) = 1131 | 1131 | 1131 Mbytes
Step Temp E_pair E_mol TotEng Press 
       0   0.97026787     0.444841    20.494523    22.394765    4.6721831 
     100   0.97377623   0.44251998    20.501644    22.404827    4.6948964 
Loop time of 6.74682 on 16 procs for 100 steps with 2048000 atoms

Performance: 15367.249 tau/day, 14.822 timesteps/s
90.2% CPU use with 16 MPI tasks x 1 OpenMP threads

MPI task timing breakdown:
Section |  min time  |  avg time  |  max time  |%varavg| %total
---------------------------------------------------------------
Pair    | 0.91602    | 1.0186     | 1.7294     |  18.3 | 15.10
Bond    | 0.18406    | 0.20905    | 0.42231    |  12.1 |  3.10
Neigh   | 1.5207     | 1.5696     | 1.5834     |   1.3 | 23.26
Comm    | 1.2567     | 2.0573     | 2.4714     |  34.7 | 30.49
Output  | 0.016428   | 0.020364   | 0.032101   |   4.7 |  0.30
Modify  | 0.70449    | 0.7897     | 1.367      |  16.9 | 11.70
Other   |            | 1.082      |            |       | 16.04

Nlocal:         128000 ave      128058 max      127941 min
Histogram: 3 0 1 0 4 2 1 4 0 1
Nghost:        24481.2 ave       24549 max       24388 min
Histogram: 1 1 0 2 1 4 3 0 1 3
Neighs:         749913 ave      750596 max      749375 min
Histogram: 2 3 0 3 2 2 1 1 0 2

Total # of neighbors = 11998607
Ave neighs/atom = 5.8586948
Ave special neighs/atom = 1.98
Neighbor list builds = 27
Dangerous builds = 0
Total wall time: 0:00:07
Intel(R) VTune(TM) Profiler 2022.2.0 collection completed successfully. Use the "aps --report /home/ubuntu/lammps/bench/aps_result_20220526" command to generate textual and HTML reports for the profiling session.
