LAMMPS (7 Jan 2022)
  using 1 OpenMP thread(s) per MPI task
Reading data file ...
  orthogonal box = (-16.796 -16.796 -16.796) to (16.796 16.796 16.796)
  2 by 4 by 4 MPI processor grid
  reading atoms ...
  32000 atoms
  reading velocities ...
  32000 velocities
  scanning bonds ...
  1 = max bonds/atom
  reading bonds ...
  31680 bonds
Finding 1-2 1-3 1-4 neighbors ...
  special bond factors lj:    0        1        1       
  special bond factors coul:  0        1        1       
     2 = max # of 1-2 neighbors
     2 = max # of special neighbors
  special bonds CPU = 0.002 seconds
  read_data CPU = 0.128 seconds
----------------------------------------------------------
Using INTEL Package without Coprocessor.
Compiler: Intel Classic C++ 20.21.5 / Intel(R) C++ g++ 9.3 mode
SIMD compiler directives: Enabled
Precision: mixed
----------------------------------------------------------
  generated 0 of 0 mixed pair_coeff terms from geometric mixing rule
Neighbor list info ...
  update every 1 steps, delay 1 steps, check yes
  max neighbors/atom: 2000, page size: 100000
  master list distance cutoff = 1.52
  ghost atom cutoff = 1.52
  binsize = 0.76, bins = 45 45 45
  1 neighbor lists, perpetual/occasional/extra = 1 0 0
  (1) pair lj/cut/intel, perpetual
      attributes: half, newton on, intel
      pair build: half/bin/newton/intel
      stencil: half/bin/3d
      bin: intel
Setting up Verlet run ...
  Unit style    : lj
  Current step  : 0
  Time step     : 0.012
WARNING: Communication cutoff 1.52 is shorter than a bond length based estimate of 1.855. This may lead to errors. (../comm.cpp:723)
Per MPI rank memory allocation (min/avg/max) = 12.64 | 12.85 | 13.04 Mbytes
Step Temp E_pair E_mol TotEng Press 
       0   0.97029772   0.44484085    20.494523    22.394765    4.6721835 
     100   0.97606055   0.43590001    20.501155      22.4011    4.7078666 
     200    0.9765309   0.44318188    20.498704    22.406636     4.712094 
     300   0.97928903     0.443769     20.50215    22.414806    4.6563185 
     400   0.98249532   0.45010405    20.500804    22.424605    4.7216329 
     500   0.98894672   0.44290097    20.507392    22.433666    4.7117985 
     600   0.98364199   0.45281726    20.509771    22.438005    4.8040106 
     700   0.98767453   0.44766231    20.507453    22.436581    4.7090287 
     800   0.98848167   0.44422959    20.511747    22.438653    4.7192769 
     900   0.99547451   0.44925036    20.502529    22.444944    4.6917427 
    1000   0.98580784   0.45171907    20.517014    22.447399    4.7744776 
    1100   0.99231643   0.45381629     20.50902    22.451264    4.7618145 
    1200   0.99680516   0.44562046    20.511804    22.452585    4.7525263 
    1300   0.99587456   0.45117976    20.512431    22.457376    4.7946917 
    1400   0.99537335   0.44747183    20.525174    22.465659    4.6618486 
    1500    1.0014905   0.44964582    20.520646     22.47248    4.7408469 
    1600    1.0076631   0.45140712    20.512193    22.475047    4.7296929 
    1700   0.99692563   0.45540206    20.517696     22.46844    4.8025935 
    1800    0.9987013   0.45308262    20.511058    22.462145    4.7015652 
    1900    1.0034741   0.44498112    20.512056    22.462201    4.7452692 
    2000    1.0023007   0.45554633    20.508607    22.467558    4.8164668 
    2100   0.99907822   0.45788374    20.508383    22.464837    4.8740068 
    2200    1.0041071   0.45203191    20.511167    22.469312    4.8199759 
    2300    1.0030404    0.4534805    20.507789    22.465783    4.7090866 
    2400    1.0021611   0.45153019    20.512213    22.466938    4.7748138 
    2500    1.0029633   0.45322584    20.512505    22.470129    4.8165431 
    2600   0.99844782   0.45241419     20.51828    22.468319    4.8016054 
    2700    1.0009061    0.4519409    20.514391    22.467644    4.7446367 
    2800   0.99884769   0.45157041    20.517407    22.467202    4.7908388 
    2900   0.99475865   0.45529657    20.516038    22.463426    4.7122289 
    3000   0.99989853   0.45618425     20.50969    22.465675    4.8163414 
    3100    1.0000836    0.4482243    20.513634    22.461937    4.7625744 
    3200   0.99333526   0.45271341    20.515435    22.458105    4.7853108 
    3300   0.99644005   0.45087071    20.519663    22.465147    4.8121549 
    3400    1.0004472   0.45091817    20.511415    22.462957     4.729258 
    3500   0.99430141   0.45398829    20.518272    22.463666    4.7480908 
    3600   0.99969548   0.45200525    20.509445    22.460947    4.8047011 
    3700   0.99890747   0.45075082    20.509788    22.458853    4.7491324 
    3800   0.99399278   0.44999191    20.514509    22.455443    4.7975233 
    3900    1.0047012   0.44956245    20.509048    22.465616    4.7269651 
    4000    1.0026882   0.45530581    20.513106    22.472397    4.8198805 
    4100    1.0062192   0.45030045    20.511476    22.471058     4.796749 
    4200    1.0029348   0.45248124    20.518822    22.475658    4.9129473 
    4300    1.0030191   0.45087097    20.520631    22.475984    4.7143974 
    4400    1.0064381   0.45291614     20.51433    22.476856    4.7922142 
    4500    1.0015412   0.45825084    20.515463    22.475979    4.8845178 
    4600    1.0072892   0.45269359    20.517122    22.480702    4.7845554 
    4700    1.0119405   0.45259162    20.510812    22.481267     4.805543 
    4800    1.0025644   0.45889527    20.517708    22.480403    4.7704184 
    4900   0.99992546   0.45259443    20.519162    22.471598    4.8596056 
    5000    1.0025305   0.44349016     20.51487    22.462109    4.6358303 
    5100   0.99707743   0.45403908    20.515402    22.465011     4.818896 
    5200    1.0038406    0.4545478    20.509791    22.470053    4.8028318 
    5300   0.99587791   0.45536246     20.51441    22.463542    4.8177693 
    5400    0.9949479    0.4530903    20.511495     22.45696    4.8066448 
    5500   0.99849112   0.44776633    20.513736    22.459193    4.7926072 
    5600   0.99394026   0.45115066    20.516662    22.458677    4.8270941 
    5700   0.99370663    0.4545859     20.51756     22.46266    4.8697084 
    5800   0.99849782   0.45156496    20.515366    22.464631    4.7998694 
    5900   0.99734304   0.45166194    20.516495    22.464125    4.8265684 
    6000   0.99779305   0.45599111    20.507968    22.460602    4.8261732 
    6100    1.0018989   0.45362045    20.510812    22.467234    4.7558273 
    6200    1.0040743    0.4498093    20.512759    22.468633    4.7498664 
    6300    1.0037661    0.4525438    20.508316    22.466462    4.7454894 
    6400   0.99710447   0.45214723    20.520791    22.468548    4.7561827 
    6500   0.99573468   0.44852587    20.516441    22.458522    4.7893317 
    6600    1.0032135   0.45014021    20.510499    22.465412    4.8193335 
    6700   0.99572726   0.45605823    20.511916    22.461519    4.7667059 
    6800    1.0008635     0.446396    20.513458    22.461102     4.738958 
    6900   0.99950678   0.44923816    20.515512    22.463964    4.8622253 
    7000    1.0056854   0.44948367    20.505012    22.462976    4.7975843 
    7100    1.0010813   0.44921828    20.512161    22.462954     4.828105 
    7200   0.99219528   0.45084836    20.514704    22.453799    4.7282299 
    7300    0.9963308   0.44973431    20.510944    22.455128    4.7126485 
    7400   0.98928031   0.45825863     20.51539    22.457522    4.8731573 
    7500   0.99174519   0.45550141    20.521244    22.464317    4.7817394 
    7600    1.0021989   0.45225903    20.509173    22.464684    4.7574537 
    7700   0.99968691   0.45133979    20.512795    22.463619    4.8557829 
    7800    1.0033969   0.45370028    20.514397    22.473146    4.8585334 
    7900    1.0010903   0.45446401    20.517777     22.47383    4.8307325 
    8000    1.0017425   0.45849729    20.516323    22.477387    4.7460934 
    8100    1.0046263   0.45264221     20.51224    22.471775    4.8693692 
    8200    1.0006145   0.45186755    20.514374    22.467117     4.802921 
    8300   0.99602419   0.45374536    20.516518    22.464253    4.8183404 
    8400   0.99987543   0.45300616     20.51606    22.468832    4.7290417 
    8500   0.99990352    0.4521711    20.512982    22.464962    4.7339262 
    8600   0.99722984   0.45373312    20.515026    22.464557    4.7615982 
    8700     1.007813   0.45051779    20.507816    22.470006     4.846853 
    8800    1.0065212   0.45202677    20.514232    22.475994    4.7300908 
    8900    1.0028148    0.4537767    20.523077    22.481029    4.7711397 
    9000    1.0049209   0.45284612    20.518985    22.479165    4.7446235 
    9100    1.0016677   0.45307672    20.518389     22.47392    4.8165934 
    9200   0.99587276     0.461041    20.517038    22.471841    4.9293058 
    9300    1.0013309   0.45857604    20.514706    22.475231    4.7601812 
    9400     1.003459    0.4576792    20.516948    22.479768    4.7864371 
    9500    1.0034985   0.45132355     20.52455    22.481074    4.7794064 
    9600    1.0035508    0.4577424     20.51964    22.482662    4.8977968 
    9700    1.0027399   0.45481889    20.515987    22.474869    4.7731848 
    9800    1.0048933   0.45403819    20.515296    22.476628    4.7725816 
    9900    1.0042636   0.45369921    20.517136    22.477183     4.875947 
   10000    1.0008024   0.45086985    20.521651    22.473677    4.8199039 
Loop time of 3.53408 on 32 procs for 10000 steps with 32000 atoms

Performance: 2933719.483 tau/day, 2829.591 timesteps/s
97.4% CPU use with 32 MPI tasks x 1 OpenMP threads

MPI task timing breakdown:
Section |  min time  |  avg time  |  max time  |%varavg| %total
---------------------------------------------------------------
Pair    | 0.72293    | 0.81432    | 0.91222    |   5.5 | 23.04
Bond    | 0.10804    | 0.12904    | 0.13928    |   2.3 |  3.65
Neigh   | 0.96831    | 0.9713     | 0.97579    |   0.2 | 27.48
Comm    | 0.767      | 0.86419    | 0.96265    |   5.7 | 24.45
Output  | 0.0026389  | 0.0032299  | 0.0041948  |   0.7 |  0.09
Modify  | 0.49901    | 0.59082    | 0.62204    |   4.8 | 16.72
Other   |            | 0.1612     |            |       |  4.56

Nlocal:           1000 ave        1019 max         984 min
Histogram: 3 2 3 2 8 4 7 0 1 2
Nghost:        1195.78 ave        1227 max        1168 min
Histogram: 1 2 3 6 5 9 1 2 2 1
Neighs:           5856 ave        6040 max        5712 min
Histogram: 4 0 5 4 7 6 3 0 1 2

Total # of neighbors = 187392
Ave neighs/atom = 5.856
Ave special neighs/atom = 1.98
Neighbor list builds = 2508
Dangerous builds = 0
Total wall time: 0:00:03
Intel(R) VTune(TM) Profiler 2022.2.0 collection completed successfully. Use the "aps --report /home/ubuntu/lammps/bench/aps_result_20220703" command to generate textual and HTML reports for the profiling session.
