LAMMPS (7 Jan 2022)
  using 1 OpenMP thread(s) per MPI task
Reading data file ...
  orthogonal box = (-16.796 -16.796 -16.796) to (16.796 16.796 16.796)
  2 by 4 by 4 MPI processor grid
  reading atoms ...
  32000 atoms
  reading velocities ...
  32000 velocities
  scanning bonds ...
  1 = max bonds/atom
  reading bonds ...
  31680 bonds
Finding 1-2 1-3 1-4 neighbors ...
  special bond factors lj:    0        1        1       
  special bond factors coul:  0        1        1       
     2 = max # of 1-2 neighbors
     2 = max # of special neighbors
  special bonds CPU = 0.208 seconds
  read_data CPU = 1.140 seconds
Replicating atoms ...
  orthogonal box = (-16.796 -16.796 -16.796) to (117.572 117.572 117.572)
  2 by 4 by 4 MPI processor grid
  2048000 atoms
  2027520 bonds
Finding 1-2 1-3 1-4 neighbors ...
  special bond factors lj:    0        1        1       
  special bond factors coul:  0        1        1       
     2 = max # of 1-2 neighbors
     2 = max # of special neighbors
  special bonds CPU = 0.039 seconds
  replicate CPU = 0.188 seconds
----------------------------------------------------------
Using INTEL Package without Coprocessor.
Compiler: Intel Classic C++ 20.21.5 / Intel(R) C++ g++ 9.3 mode
SIMD compiler directives: Enabled
Precision: single
----------------------------------------------------------
  generated 0 of 0 mixed pair_coeff terms from geometric mixing rule
Neighbor list info ...
  update every 1 steps, delay 1 steps, check yes
  max neighbors/atom: 2000, page size: 100000
  master list distance cutoff = 1.52
  ghost atom cutoff = 1.52
  binsize = 0.76, bins = 177 177 177
  1 neighbor lists, perpetual/occasional/extra = 1 0 0
  (1) pair lj/cut/intel, perpetual
      attributes: half, newton on, intel
      pair build: half/bin/newton/intel
      stencil: half/bin/3d
      bin: intel
Setting up Verlet run ...
  Unit style    : lj
  Current step  : 0
  Time step     : 0.012
WARNING: Communication cutoff 1.52 is shorter than a bond length based estimate of 1.855. This may lead to errors. (../comm.cpp:723)
Per MPI rank memory allocation (min/avg/max) = 565.2 | 565.2 | 565.2 Mbytes
Step Temp E_pair E_mol TotEng Press 
       0   0.97026787   0.44484092    20.495366    22.395608    4.6721813 
     100   0.97313211   0.44141423    20.503317    22.404429    4.6789667 
Loop time of 4.63875 on 32 procs for 100 steps with 2048000 atoms

Performance: 22350.865 tau/day, 21.558 timesteps/s
88.5% CPU use with 32 MPI tasks x 1 OpenMP threads

MPI task timing breakdown:
Section |  min time  |  avg time  |  max time  |%varavg| %total
---------------------------------------------------------------
Pair    | 0.43033    | 0.47507    | 0.97282    |  14.7 | 10.24
Bond    | 0.072833   | 0.078488   | 0.10621    |   2.0 |  1.69
Neigh   | 0.84983    | 0.8716     | 0.88866    |   1.1 | 18.79
Comm    | 1.2526     | 1.6844     | 2.0553     |  27.9 | 36.31
Output  | 0.00029895 | 0.0082383  | 0.0089167  |   2.3 |  0.18
Modify  | 0.35859    | 0.38998    | 0.62383    |   8.2 |  8.41
Other   |            | 1.131      |            |       | 24.38

Nlocal:          64000 ave       64076 max       63917 min
Histogram: 2 2 2 3 7 3 5 3 3 2
Nghost:        15540.6 ave       15679 max       15473 min
Histogram: 9 4 3 4 4 4 1 0 2 1
Neighs:         374944 ave      375794 max      374139 min
Histogram: 3 2 1 5 5 6 4 2 2 2

Total # of neighbors = 11998205
Ave neighs/atom = 5.8584985
Ave special neighs/atom = 1.98
Neighbor list builds = 26
Dangerous builds = 0
Total wall time: 0:00:06
Intel(R) VTune(TM) Profiler 2022.2.0 collection completed successfully. Use the "aps --report /home/ubuntu/lammps/bench/aps_result_20220531" command to generate textual and HTML reports for the profiling session.
