LAMMPS (7 Jan 2022)
  using 1 OpenMP thread(s) per MPI task
Reading data file ...
  orthogonal box = (0 0 0) to (40 20 37.2886)
  2 by 2 by 2 MPI processor grid
  reading atoms ...
  32000 atoms
  reading velocities ...
  32000 velocities
  read_data CPU = 0.732 seconds
Replicating atoms ...
  orthogonal box = (0 0 0) to (120 60 37.292229)
  4 by 2 by 1 MPI processor grid
  288000 atoms
  replicate CPU = 0.067 seconds
8208 atoms in group bottom
279792 atoms in group active
  generated 0 of 1 mixed pair_coeff terms from geometric mixing rule
Neighbor list info ...
  update every 1 steps, delay 0 steps, check yes
  max neighbors/atom: 2000, page size: 100000
  master list distance cutoff = 1.1
  ghost atom cutoff = 1.1
  binsize = 0.55, bins = 219 110 68
  1 neighbor lists, perpetual/occasional/extra = 1 0 0
  (1) pair gran/hooke/history, perpetual
      attributes: half, newton off, size, history
      pair build: half/size/bin/newtoff
      stencil: full/bin/3d
      bin: standard
Setting up Verlet run ...
  Unit style    : lj
  Current step  : 0
  Time step     : 0.0001
Per MPI rank memory allocation (min/avg/max) = 23.78 | 23.78 | 23.78 Mbytes
Step Atoms KinEng c_1 Volume 
       0   288000    7057252.2    14410.137    268504.05 
     100   288000    7058628.7    14139.871    268512.37 
Loop time of 1.37304 on 8 procs for 100 steps with 288000 atoms

Performance: 629.261 tau/day, 72.831 timesteps/s
84.2% CPU use with 8 MPI tasks x 1 OpenMP threads

MPI task timing breakdown:
Section |  min time  |  avg time  |  max time  |%varavg| %total
---------------------------------------------------------------
Pair    | 0.16431    | 0.20803    | 0.43225    |  18.7 | 15.15
Neigh   | 0.041411   | 0.051528   | 0.068141   |   4.3 |  3.75
Comm    | 0.021      | 0.12992    | 0.30587    |  32.2 |  9.46
Output  | 0.00017095 | 0.00047142 | 0.00067088 |   0.0 |  0.03
Modify  | 0.068755   | 0.084215   | 0.14301    |   8.1 |  6.13
Other   |            | 0.8989     |            |       | 65.47

Nlocal:          36000 ave       36006 max       35994 min
Histogram: 4 0 0 0 0 0 0 0 0 4
Nghost:         5469.5 ave        5471 max        5468 min
Histogram: 4 0 0 0 0 0 0 0 0 4
Neighs:         128970 ave      129015 max      128925 min
Histogram: 4 0 0 0 0 0 0 0 0 4

Total # of neighbors = 1031760
Ave neighs/atom = 3.5825
Neighbor list builds = 2
Dangerous builds = 0
Total wall time: 0:00:02
Intel(R) VTune(TM) Profiler 2022.2.0 collection completed successfully. Use the "aps --report /home/ubuntu/lammps/bench/aps_result_20220531" command to generate textual and HTML reports for the profiling session.
