LAMMPS (7 Jan 2022)
  using 1 OpenMP thread(s) per MPI task
Reading data file ...
  orthogonal box = (0 0 0) to (40 20 37.2886)
  4 by 4 by 4 MPI processor grid
  reading atoms ...
  32000 atoms
  reading velocities ...
  32000 velocities
  read_data CPU = 0.084 seconds
Replicating atoms ...
  orthogonal box = (0 0 0) to (160 80 37.292229)
  8 by 4 by 2 MPI processor grid
  512000 atoms
  replicate CPU = 0.024 seconds
14592 atoms in group bottom
497408 atoms in group active
  generated 0 of 1 mixed pair_coeff terms from geometric mixing rule
Neighbor list info ...
  update every 1 steps, delay 0 steps, check yes
  max neighbors/atom: 2000, page size: 100000
  master list distance cutoff = 1.1
  ghost atom cutoff = 1.1
  binsize = 0.55, bins = 291 146 68
  1 neighbor lists, perpetual/occasional/extra = 1 0 0
  (1) pair gran/hooke/history, perpetual
      attributes: half, newton off, size, history
      pair build: half/size/bin/newtoff
      stencil: full/bin/3d
      bin: standard
Setting up Verlet run ...
  Unit style    : lj
  Current step  : 0
  Time step     : 0.0001
Per MPI rank memory allocation (min/avg/max) = 10.6 | 10.61 | 10.61 Mbytes
Step Atoms KinEng c_1 Volume 
       0   512000     12546226    25618.021    477340.53 
     100   512000     12548673    25137.549    477355.32 
     200   512000     12550763    25181.814    477379.69 
     300   512000     12553016    25287.588    477403.64 
     400   512000     12555331     25155.81     477426.4 
     500   512000     12557308    25024.766    477451.12 
     600   512000     12559542    25031.218    477475.72 
     700   512000     12562058    24839.354    477499.13 
     800   512000     12564644    24883.534    477521.34 
     900   512000     12567371    24734.109    477542.35 
    1000   512000     12569155    24637.876    477562.17 
    1100   512000     12571241    24540.829    477580.79 
    1200   512000     12573153    24734.936    477598.21 
    1300   512000     12574874    24798.965    477614.44 
    1400   512000     12576185    24845.117    477629.47 
    1500   512000     12577727    25058.358     477643.3 
    1600   512000     12579054    25173.339    477655.94 
    1700   512000     12580301    25484.708    477667.37 
    1800   512000     12581199     25696.55    477674.33 
    1900   512000     12582014    25829.194    477683.78 
    2000   512000     12582934     25901.78    477692.02 
    2100   512000     12583797    26187.371    477699.07 
    2200   512000     12584843    26251.962    477704.93 
    2300   512000     12585833     26226.34    477709.58 
    2400   512000     12587039     26137.43    477713.04 
    2500   512000     12588006    26111.856     477715.3 
    2600   512000     12588722    26239.625    477716.37 
    2700   512000     12589359     26387.86     477717.1 
    2800   512000     12589721    26429.903    477719.76 
    2900   512000     12590192    26471.993    477721.23 
    3000   512000     12590450    26492.771     477721.5 
    3100   512000     12590920    26634.094    477720.57 
    3200   512000     12591512    26793.698    477718.45 
    3300   512000     12592590     26769.47    477715.13 
    3400   512000     12593707    26708.106    477710.66 
    3500   512000     12594882    26636.661    477705.14 
    3600   512000     12596017     26569.71    477698.49 
    3700   512000     12596959    26524.729    477690.72 
    3800   512000     12597741    26554.697    477681.53 
    3900   512000     12598421    26634.788    477671.16 
    4000   512000     12599091    26619.131    477673.08 
    4100   512000     12599620    26571.727    477678.08 
    4200   512000     12599966    26508.608    477681.87 
    4300   512000     12600167    26498.431    477684.47 
    4400   512000     12600301    26541.138    477685.88 
    4500   512000     12600368    26641.672    477686.08 
    4600   512000     12600487     26777.66    477685.09 
    4700   512000     12600776    26839.529    477682.91 
    4800   512000     12601100    26905.637    477679.99 
    4900   512000     12601401    27042.304    477676.36 
    5000   512000     12601853    27171.811    477671.53 
    5100   512000     12602345    27278.108     477665.5 
    5200   512000     12602953    27375.053    477658.28 
    5300   512000     12603619    27558.321    477649.87 
    5400   512000     12604392    27642.113    477640.45 
    5500   512000     12605313    27641.655    477629.77 
    5600   512000     12606287    27581.032    477618.83 
    5700   512000     12607295    27545.016    477615.65 
    5800   512000     12608263    27499.969    477611.43 
    5900   512000     12609261    27468.417    477606.08 
    6000   512000     12610320    27444.742     477599.6 
    6100   512000     12611392    27386.255     477592.1 
    6200   512000     12612483    27353.523    477585.94 
    6300   512000     12613672     27291.11    477580.24 
    6400   512000     12614888    27173.296    477575.11 
    6500   512000     12616134    27113.927    477568.84 
    6600   512000     12617472    27094.427    477561.66 
    6700   512000     12618922    26990.014    477563.21 
    6800   512000     12620389     26877.54    477564.15 
    6900   512000     12621798    26770.133    477563.96 
    7000   512000     12623138     26687.47    477562.61 
    7100   512000     12624508    26593.579    477560.05 
    7200   512000     12625745    26525.248     477556.3 
    7300   512000     12626928    26519.867    477551.35 
    7400   512000     12628055    26465.216     477545.2 
    7500   512000     12629135    26441.467    477537.85 
    7600   512000     12630078     26410.58    477529.58 
    7700   512000     12630955    26392.028    477520.18 
    7800   512000     12631705    26422.623    477509.65 
    7900   512000     12632392    26465.637       477498 
    8000   512000     12632926    26539.111    477485.21 
    8100   512000     12633346    26617.281    477479.67 
    8200   512000     12633788    26674.269     477476.1 
    8300   512000     12634165    26738.436     477471.4 
    8400   512000     12634575    26811.068    477465.57 
    8500   512000     12634881    26830.806    477458.62 
    8600   512000     12635171    26895.683    477450.53 
    8700   512000     12635275    26968.192    477441.32 
    8800   512000     12635240    27038.422    477430.99 
    8900   512000     12635151    27151.819    477419.52 
    9000   512000     12634941    27245.285    477406.93 
    9100   512000     12634764    27295.552    477393.21 
    9200   512000     12634497    27368.392    477378.36 
    9300   512000     12634092     27478.36    477362.38 
    9400   512000     12633730    27496.808    477345.28 
    9500   512000     12633308    27545.208    477327.05 
    9600   512000     12632912    27597.167    477307.69 
    9700   512000     12632579    27608.589    477309.33 
    9800   512000     12632251    27640.255    477322.91 
    9900   512000     12631868    27632.406    477335.36 
   10000   512000     12631491    27657.785    477346.68 
Loop time of 12.3967 on 64 procs for 10000 steps with 512000 atoms

Performance: 6969.572 tau/day, 806.663 timesteps/s
99.5% CPU use with 64 MPI tasks x 1 OpenMP threads

MPI task timing breakdown:
Section |  min time  |  avg time  |  max time  |%varavg| %total
---------------------------------------------------------------
Pair    | 5.0677     | 5.6472     | 6.3017     |  15.4 | 45.55
Neigh   | 1.4509     | 1.5251     | 1.5763     |   3.3 | 12.30
Comm    | 1.2713     | 1.4242     | 1.6168     |   7.7 | 11.49
Output  | 0.013883   | 0.020831   | 0.027048   |   2.2 |  0.17
Modify  | 1.9782     | 2.1609     | 2.5485     |   8.7 | 17.43
Other   |            | 1.619      |            |       | 13.06

Nlocal:           8000 ave        8044 max        7965 min
Histogram: 9 19 4 0 0 3 11 5 10 3
Nghost:        2444.27 ave        2463 max        2426 min
Histogram: 2 7 5 8 12 10 6 5 6 3
Neighs:        29506.8 ave       30230 max       28725 min
Histogram: 16 16 0 0 0 0 0 0 6 26

Total # of neighbors = 1888438
Ave neighs/atom = 3.6883555
Neighbor list builds = 297
Dangerous builds = 0
Total wall time: 0:00:12
Intel(R) VTune(TM) Profiler 2022.2.0 collection completed successfully. Use the "aps --report /home/ubuntu/lammps/bench/aps_result_20220703" command to generate textual and HTML reports for the profiling session.
