LAMMPS (7 Jan 2022)
  using 1 OpenMP thread(s) per MPI task
Reading data file ...
  orthogonal box = (-16.796 -16.796 -16.796) to (16.796 16.796 16.796)
  4 by 4 by 4 MPI processor grid
  reading atoms ...
  32000 atoms
  reading velocities ...
  32000 velocities
  scanning bonds ...
  1 = max bonds/atom
  reading bonds ...
  31680 bonds
Finding 1-2 1-3 1-4 neighbors ...
  special bond factors lj:    0        1        1       
  special bond factors coul:  0        1        1       
     2 = max # of 1-2 neighbors
     2 = max # of special neighbors
  special bonds CPU = 0.024 seconds
  read_data CPU = 0.148 seconds
Replicating atoms ...
  orthogonal box = (-16.796 -16.796 -16.796) to (50.388 50.388 50.388)
  4 by 4 by 4 MPI processor grid
  256000 atoms
  253440 bonds
Finding 1-2 1-3 1-4 neighbors ...
  special bond factors lj:    0        1        1       
  special bond factors coul:  0        1        1       
     2 = max # of 1-2 neighbors
     2 = max # of special neighbors
  special bonds CPU = 0.025 seconds
  replicate CPU = 0.036 seconds
----------------------------------------------------------
Using INTEL Package without Coprocessor.
Compiler: Intel Classic C++ 20.21.5 / Intel(R) C++ g++ 9.3 mode
SIMD compiler directives: Enabled
Precision: mixed
----------------------------------------------------------
  generated 0 of 0 mixed pair_coeff terms from geometric mixing rule
Neighbor list info ...
  update every 1 steps, delay 1 steps, check yes
  max neighbors/atom: 2000, page size: 100000
  master list distance cutoff = 1.52
  ghost atom cutoff = 1.52
  binsize = 0.76, bins = 89 89 89
  1 neighbor lists, perpetual/occasional/extra = 1 0 0
  (1) pair lj/cut/intel, perpetual
      attributes: half, newton on, intel
      pair build: half/bin/newton/intel
      stencil: half/bin/3d
      bin: intel
Setting up Verlet run ...
  Unit style    : lj
  Current step  : 0
  Time step     : 0.012
WARNING: Communication cutoff 1.52 is shorter than a bond length based estimate of 1.855. This may lead to errors. (../comm.cpp:723)
Per MPI rank memory allocation (min/avg/max) = 38.66 | 38.85 | 38.94 Mbytes
Step Temp E_pair E_mol TotEng Press 
       0   0.97027119   0.44484088    20.494523    22.394765    4.6721834 
     100   0.97542342   0.43984897    20.499467    22.402445    4.6751293 
Loop time of 0.244186 on 64 procs for 100 steps with 256000 atoms

Performance: 424594.479 tau/day, 409.524 timesteps/s
92.8% CPU use with 64 MPI tasks x 1 OpenMP threads

MPI task timing breakdown:
Section |  min time  |  avg time  |  max time  |%varavg| %total
---------------------------------------------------------------
Pair    | 0.025511   | 0.030706   | 0.042429   |   1.9 | 12.57
Bond    | 0.0042267  | 0.0049972  | 0.0055405  |   0.7 |  2.05
Neigh   | 0.061955   | 0.0622     | 0.062567   |   0.1 | 25.47
Comm    | 0.036036   | 0.061106   | 0.087682   |   7.8 | 25.02
Output  | 4.1613e-05 | 0.0092941  | 0.016068   |   8.2 |  3.81
Modify  | 0.019426   | 0.023452   | 0.051719   |   2.8 |  9.60
Other   |            | 0.05243    |            |       | 21.47

Nlocal:           4000 ave        4040 max        3953 min
Histogram: 1 1 3 9 12 17 7 10 0 4
Nghost:        2592.52 ave        2637 max        2562 min
Histogram: 6 10 7 8 8 11 6 6 0 2
Neighs:        23429.7 ave       23806 max       23040 min
Histogram: 2 3 6 12 9 9 9 6 4 4

Total # of neighbors = 1499501
Ave neighs/atom = 5.8574258
Ave special neighs/atom = 1.98
Neighbor list builds = 25
Dangerous builds = 0
Total wall time: 0:00:00
Intel(R) VTune(TM) Profiler 2022.2.0 collection completed successfully. Use the "aps --report /home/ubuntu/lammps/bench/aps_result_20220526" command to generate textual and HTML reports for the profiling session.
