LAMMPS (7 Jan 2022)
  using 1 OpenMP thread(s) per MPI task
Reading data file ...
  orthogonal box = (0 0 0) to (40 20 37.2886)
  2 by 2 by 2 MPI processor grid
  reading atoms ...
  32000 atoms
  reading velocities ...
  32000 velocities
  read_data CPU = 0.182 seconds
912 atoms in group bottom
31088 atoms in group active
  generated 0 of 1 mixed pair_coeff terms from geometric mixing rule
Neighbor list info ...
  update every 1 steps, delay 0 steps, check yes
  max neighbors/atom: 2000, page size: 100000
  master list distance cutoff = 1.1
  ghost atom cutoff = 1.1
  binsize = 0.55, bins = 73 37 68
  1 neighbor lists, perpetual/occasional/extra = 1 0 0
  (1) pair gran/hooke/history, perpetual
      attributes: half, newton off, size, history
      pair build: half/size/bin/newtoff
      stencil: full/bin/3d
      bin: standard
Setting up Verlet run ...
  Unit style    : lj
  Current step  : 0
  Time step     : 0.0001
Per MPI rank memory allocation (min/avg/max) = 10.39 | 10.39 | 10.39 Mbytes
Step Atoms KinEng c_1 Volume 
       0    32000    784139.13    1601.1263    29833.783 
     100    32000    784292.08    1571.0968    29834.707 
Loop time of 0.0904844 on 8 procs for 100 steps with 32000 atoms

Performance: 9548.610 tau/day, 1105.163 timesteps/s
90.9% CPU use with 8 MPI tasks x 1 OpenMP threads

MPI task timing breakdown:
Section |  min time  |  avg time  |  max time  |%varavg| %total
---------------------------------------------------------------
Pair    | 0.018375   | 0.020524   | 0.023012   |   1.3 | 22.68
Neigh   | 0.0042134  | 0.0052912  | 0.0054894  |   0.6 |  5.85
Comm    | 0.006345   | 0.010049   | 0.019941   |   5.6 | 11.11
Output  | 2.9258e-05 | 6.4459e-05 | 0.00010273 |   0.0 |  0.07
Modify  | 0.0079689  | 0.0098299  | 0.02233    |   4.8 | 10.86
Other   |            | 0.04473    |            |       | 49.43

Nlocal:           4000 ave        4004 max        3996 min
Histogram: 4 0 0 0 0 0 0 0 0 4
Nghost:         1736.5 ave        1738 max        1735 min
Histogram: 4 0 0 0 0 0 0 0 0 4
Neighs:        15091.5 ave       15604 max       14579 min
Histogram: 4 0 0 0 0 0 0 0 0 4

Total # of neighbors = 120732
Ave neighs/atom = 3.772875
Neighbor list builds = 2
Dangerous builds = 0
Total wall time: 0:00:00
Intel(R) VTune(TM) Profiler 2022.2.0 collection completed successfully. Use the "aps --report /home/ubuntu/lammps/bench/aps_result_20220526" command to generate textual and HTML reports for the profiling session.
