LAMMPS (7 Jan 2022)
  using 1 OpenMP thread(s) per MPI task
New timer settings: style=full  mode=nosync  timeout=off
Reading data file ...
  orthogonal box = (-16.796 -16.796 -16.796) to (16.796 16.796 16.796)
  4 by 4 by 4 MPI processor grid
  reading atoms ...
  32000 atoms
  reading velocities ...
  32000 velocities
  scanning bonds ...
  1 = max bonds/atom
  reading bonds ...
  31680 bonds
Finding 1-2 1-3 1-4 neighbors ...
  special bond factors lj:    0        1        1       
  special bond factors coul:  0        1        1       
     2 = max # of 1-2 neighbors
     2 = max # of special neighbors
  special bonds CPU = 0.013 seconds
  read_data CPU = 0.117 seconds
----------------------------------------------------------
Using INTEL Package without Coprocessor.
Compiler: Intel Classic C++ 20.21.5 / Intel(R) C++ g++ 9.3 mode
SIMD compiler directives: Enabled
Precision: mixed
----------------------------------------------------------
  generated 0 of 0 mixed pair_coeff terms from geometric mixing rule
Neighbor list info ...
  update every 1 steps, delay 1 steps, check yes
  max neighbors/atom: 2000, page size: 100000
  master list distance cutoff = 1.52
  ghost atom cutoff = 1.52
  binsize = 0.76, bins = 45 45 45
  1 neighbor lists, perpetual/occasional/extra = 1 0 0
  (1) pair lj/cut/intel, perpetual
      attributes: half, newton on, intel
      pair build: half/bin/newton/intel
      stencil: half/bin/3d
      bin: intel
Setting up Verlet run ...
  Unit style    : lj
  Current step  : 0
  Time step     : 0.012
WARNING: Communication cutoff 1.52 is shorter than a bond length based estimate of 1.855. This may lead to errors. (../comm.cpp:723)
Per MPI rank memory allocation (min/avg/max) = 8.383 | 8.562 | 8.733 Mbytes
Step Temp E_pair E_mol TotEng Press 
       0   0.97029772   0.44484085    20.494523    22.394765    4.6721835 
     100   0.96979859   0.44460609    20.502859    22.402118    4.6865188 
Loop time of 0.0343698 on 64 procs for 100 steps with 32000 atoms

Performance: 3016601.181 tau/day, 2909.530 timesteps/s
69.3% CPU use with 64 MPI tasks x 1 OpenMP threads

MPI task timing breakdown:
Section |  min time  |  avg time  |  max time  |%varavg|  %CPU | %total
-----------------------------------------------------------------------
Pair    | 0.0043184  | 0.0046596  | 0.0049695  |   0.2 |  75.2 | 13.56
Bond    | 0.00074309 | 0.00076492 | 0.00079657 |   0.0 |  75.3 |  2.23
Neigh   | 0.0061293  | 0.0063912  | 0.0066813  |   0.2 |  72.5 | 18.60
Comm    | 0.015721   | 0.016583   | 0.017437   |   0.3 |  63.8 | 48.25
Output  | 5.4521e-05 | 5.9764e-05 | 7.1759e-05 |   0.0 |  91.9 |  0.17
Modify  | 0.003214   | 0.0032992  | 0.0035644  |   0.1 |  75.8 |  9.60
Other   |            | 0.002612   |            |       |       |  7.60

Nlocal:            500 ave         513 max         484 min
Histogram: 2 3 5 5 9 10 12 11 5 2
Nghost:        764.578 ave         786 max         743 min
Histogram: 2 2 6 19 5 4 13 2 7 4
Neighs:        2928.83 ave        3056 max        2795 min
Histogram: 3 2 8 6 9 12 11 8 2 3

Total # of neighbors = 187445
Ave neighs/atom = 5.8576562
Ave special neighs/atom = 1.98
Neighbor list builds = 25
Dangerous builds = 0
Total wall time: 0:00:00
Intel(R) VTune(TM) Profiler 2022.2.0 collection completed successfully. Use the "aps --report /home/ubuntu/lammps/bench/aps_result_20220519" command to generate textual and HTML reports for the profiling session.
