LAMMPS (7 Jan 2022)
  using 1 OpenMP thread(s) per MPI task
Reading data file ...
  orthogonal box = (-16.796 -16.796 -16.796) to (16.796 16.796 16.796)
  4 by 4 by 4 MPI processor grid
  reading atoms ...
  32000 atoms
  reading velocities ...
  32000 velocities
  scanning bonds ...
  1 = max bonds/atom
  reading bonds ...
  31680 bonds
Finding 1-2 1-3 1-4 neighbors ...
  special bond factors lj:    0        1        1       
  special bond factors coul:  0        1        1       
     2 = max # of 1-2 neighbors
     2 = max # of special neighbors
  special bonds CPU = 0.006 seconds
  read_data CPU = 0.108 seconds
Replicating atoms ...
  orthogonal box = (-16.796 -16.796 -16.796) to (117.572 117.572 117.572)
  4 by 4 by 4 MPI processor grid
  2048000 atoms
  2027520 bonds
Finding 1-2 1-3 1-4 neighbors ...
  special bond factors lj:    0        1        1       
  special bond factors coul:  0        1        1       
     2 = max # of 1-2 neighbors
     2 = max # of special neighbors
  special bonds CPU = 0.018 seconds
  replicate CPU = 0.050 seconds
----------------------------------------------------------
Using INTEL Package without Coprocessor.
Compiler: Intel Classic C++ 20.21.5 / Intel(R) C++ g++ 9.3 mode
SIMD compiler directives: Enabled
Precision: double
----------------------------------------------------------
  generated 0 of 0 mixed pair_coeff terms from geometric mixing rule
Neighbor list info ...
  update every 1 steps, delay 1 steps, check yes
  max neighbors/atom: 2000, page size: 100000
  master list distance cutoff = 1.52
  ghost atom cutoff = 1.52
  binsize = 0.76, bins = 177 177 177
  1 neighbor lists, perpetual/occasional/extra = 1 0 0
  (1) pair lj/cut/intel, perpetual
      attributes: half, newton on, intel
      pair build: half/bin/newton/intel
      stencil: half/bin/3d
      bin: intel
Setting up Verlet run ...
  Unit style    : lj
  Current step  : 0
  Time step     : 0.012
WARNING: Communication cutoff 1.52 is shorter than a bond length based estimate of 1.855. This may lead to errors. (../comm.cpp:723)
Per MPI rank memory allocation (min/avg/max) = 286.4 | 286.4 | 286.4 Mbytes
Step Temp E_pair E_mol TotEng Press 
       0   0.97026787   0.44484087    20.494523    22.394765    4.6721833 
     100   0.97328675   0.44172177    20.501899     22.40355    4.6833814 
Loop time of 1.17827 on 64 procs for 100 steps with 2048000 atoms

Performance: 87993.776 tau/day, 84.871 timesteps/s
98.5% CPU use with 64 MPI tasks x 1 OpenMP threads

MPI task timing breakdown:
Section |  min time  |  avg time  |  max time  |%varavg| %total
---------------------------------------------------------------
Pair    | 0.21346    | 0.23735    | 0.26006    |   2.9 | 20.14
Bond    | 0.053968   | 0.069081   | 0.083688   |   3.6 |  5.86
Neigh   | 0.27119    | 0.2732     | 0.27493    |   0.2 | 23.19
Comm    | 0.27316    | 0.30394    | 0.33766    |   3.8 | 25.80
Output  | 0.00015362 | 0.00035379 | 0.00064515 |   0.0 |  0.03
Modify  | 0.18688    | 0.21794    | 0.24125    |   5.1 | 18.50
Other   |            | 0.07641    |            |       |  6.48

Nlocal:          32000 ave       32056 max       31951 min
Histogram: 5 3 13 6 8 8 7 7 6 1
Nghost:        9500.56 ave        9567 max        9427 min
Histogram: 3 5 5 9 9 3 12 6 7 5
Neighs:         187428 ave      188030 max      186889 min
Histogram: 1 7 10 5 10 10 12 6 1 2

Total # of neighbors = 11995410
Ave neighs/atom = 5.8571338
Ave special neighs/atom = 1.98
Neighbor list builds = 26
Dangerous builds = 0
Total wall time: 0:00:01
Intel(R) VTune(TM) Profiler 2022.2.0 collection completed successfully. Use the "aps --report /home/ubuntu/lammps/bench/aps_result_20220601" command to generate textual and HTML reports for the profiling session.
