LAMMPS (7 Jan 2022)
  using 1 OpenMP thread(s) per MPI task
Reading data file ...
  orthogonal box = (0 0 0) to (40 20 37.2886)
  2 by 1 by 2 MPI processor grid
  reading atoms ...
  32000 atoms
  reading velocities ...
  32000 velocities
  read_data CPU = 0.118 seconds
Replicating atoms ...
  orthogonal box = (0 0 0) to (120 60 37.292229)
  2 by 2 by 1 MPI processor grid
  288000 atoms
  replicate CPU = 0.028 seconds
8208 atoms in group bottom
279792 atoms in group active
  generated 0 of 1 mixed pair_coeff terms from geometric mixing rule
Neighbor list info ...
  update every 1 steps, delay 0 steps, check yes
  max neighbors/atom: 2000, page size: 100000
  master list distance cutoff = 1.1
  ghost atom cutoff = 1.1
  binsize = 0.55, bins = 219 110 68
  1 neighbor lists, perpetual/occasional/extra = 1 0 0
  (1) pair gran/hooke/history, perpetual
      attributes: half, newton off, size, history
      pair build: half/size/bin/newtoff
      stencil: full/bin/3d
      bin: standard
Setting up Verlet run ...
  Unit style    : lj
  Current step  : 0
  Time step     : 0.0001
Per MPI rank memory allocation (min/avg/max) = 37.49 | 37.49 | 37.49 Mbytes
Step Atoms KinEng c_1 Volume 
       0   288000    7057252.2    14410.137    268504.05 
     100   288000    7058628.7    14139.871    268512.37 
     200   288000    7059804.4    14164.771    268526.08 
     300   288000    7061071.3    14224.268    268539.55 
     400   288000    7062373.5    14150.143    268552.35 
     500   288000    7063485.9    14076.431    268566.25 
     600   288000    7064742.3     14080.06    268580.09 
     700   288000    7066157.4    13972.136    268593.26 
     800   288000    7067612.3    13996.988    268605.75 
     900   288000    7069146.1    13912.936    268617.57 
    1000   288000    7070149.9    13858.805    268628.72 
    1100   288000    7071323.1    13804.216    268639.19 
    1200   288000    7072398.5    13913.402    268648.99 
    1300   288000    7073366.7    13949.418    268658.12 
    1400   288000    7074104.1    13975.379    268666.58 
    1500   288000    7074971.5    14095.327    268674.36 
    1600   288000    7075717.8    14160.003    268681.46 
    1700   288000    7076419.2    14335.129     268687.9 
    1800   288000    7076924.5    14454.309    268691.81 
    1900   288000      7077383    14528.882    268697.13 
    2000   288000    7077900.2    14569.618    268701.76 
    2100   288000    7078385.6    14730.174    268705.73 
    2200   288000      7078974    14766.139    268709.02 
    2300   288000    7079530.8    14751.582    268711.64 
    2400   288000    7080208.1    14702.544    268713.59 
    2500   288000    7080752.5    14691.139    268714.86 
    2600   288000    7081160.8    14753.394    268715.46 
    2700   288000    7081506.2     14844.75    268715.87 
    2800   288000    7081710.3    14859.461    268717.37 
    2900   288000      7081977    14884.943    268718.19 
    3000   288000    7082089.5    14911.621    268718.34 
    3100   288000    7082376.8    14999.352    268717.82 
    3200   288000    7082692.7     15098.15    268716.63 
    3300   288000    7083322.1     15068.03    268714.76 
    3400   288000    7083954.6    15022.786    268712.25 
    3500   288000    7084625.1    14997.222    268709.14 
    3600   288000    7085226.3    14950.938     268705.4 
    3700   288000    7085774.4    14924.249    268701.03 
    3800   288000    7086272.6    14915.763    268695.86 
    3900   288000    7086711.9    14954.301    268690.55 
    4000   288000    7087130.4    14931.167     268693.3 
    4100   288000    7087404.8    14912.611    268696.86 
    4200   288000    7087576.2    14922.575    268699.75 
    4300   288000    7087754.2    14870.207    268701.97 
    4400   288000    7087823.7    14904.879    268703.51 
    4500   288000    7087865.3    15006.512    268704.38 
    4600   288000    7087908.9    15067.058    268704.58 
    4700   288000    7088028.7    15089.609     268704.1 
    4800   288000    7088159.3    15126.403    268702.95 
    4900   288000    7088310.7    15170.434    268701.13 
    5000   288000    7088511.4    15258.383    268698.63 
    5100   288000    7088734.7    15314.435    268695.46 
    5200   288000    7089041.8    15386.386    268691.62 
    5300   288000    7089395.7    15472.291     268687.1 
    5400   288000      7089753    15544.645    268682.02 
    5500   288000    7090200.9     15568.88    268676.35 
    5600   288000    7090726.2    15578.238    268670.05 
    5700   288000    7091266.8    15543.384    268663.11 
    5800   288000    7091799.6    15505.495    268655.54 
    5900   288000    7092345.2    15501.144    268647.34 
    6000   288000    7092975.1    15499.542     268638.5 
    6100   288000    7093647.1    15463.288    268629.03 
    6200   288000    7094345.6    15418.527    268622.63 
    6300   288000    7095002.8    15381.238    268616.45 
    6400   288000    7095732.1    15347.751    268609.63 
    6500   288000    7096510.7    15301.796     268607.1 
    6600   288000    7097360.7    15242.045    268607.04 
    6700   288000      7098210    15142.923    268606.35 
    6800   288000    7099027.2    15098.333    268605.03 
    6900   288000    7099832.1    15061.801    268603.07 
    7000   288000    7100635.3    15028.774    268600.39 
    7100   288000    7101413.6    14990.585    268597.03 
    7200   288000    7102150.5    14952.618       268593 
    7300   288000    7102818.1    14913.375     268588.3 
    7400   288000    7103453.7    14888.811    268582.93 
    7500   288000    7103978.9    14871.474    268576.88 
    7600   288000    7104429.7    14899.597    268570.16 
    7700   288000      7104855    14912.166    268562.76 
    7800   288000    7105235.8    14916.954    268554.69 
    7900   288000    7105616.9    14942.381    268546.13 
    8000   288000    7106000.6    14923.342    268537.02 
    8100   288000    7106323.4    14951.078    268527.27 
    8200   288000    7106592.6    14977.681    268516.88 
    8300   288000    7106892.8    14988.161    268505.86 
    8400   288000    7107088.8     15027.99    268494.21 
    8500   288000    7107376.1    15030.708    268481.92 
    8600   288000    7107493.8    15059.331       268469 
    8700   288000    7107565.3    15114.562    268455.45 
    8800   288000    7107584.6    15158.407    268441.26 
    8900   288000    7107622.9     15200.05    268426.44 
    9000   288000    7107601.5    15220.935    268410.98 
    9100   288000    7107563.2    15245.201    268394.88 
    9200   288000    7107530.6    15268.548    268378.16 
    9300   288000    7107463.4    15297.711    268364.89 
    9400   288000    7107412.3    15304.766    268368.07 
    9500   288000    7107304.3    15329.205     268370.6 
    9600   288000    7107156.6    15356.003    268372.51 
    9700   288000    7107027.7    15358.423    268373.78 
    9800   288000    7106897.7    15368.179    268374.41 
    9900   288000    7106730.9    15413.084    268374.42 
   10000   288000    7106600.4    15464.576    268387.36 
Loop time of 67.6409 on 4 procs for 10000 steps with 288000 atoms

Performance: 1277.333 tau/day, 147.839 timesteps/s
99.9% CPU use with 4 MPI tasks x 1 OpenMP threads

MPI task timing breakdown:
Section |  min time  |  avg time  |  max time  |%varavg| %total
---------------------------------------------------------------
Pair    | 35.445     | 35.655     | 35.912     |   3.4 | 52.71
Neigh   | 11.247     | 11.301     | 11.395     |   1.7 | 16.71
Comm    | 2.9302     | 2.9451     | 2.9556     |   0.6 |  4.35
Output  | 0.032351   | 0.036056   | 0.040253   |   1.9 |  0.05
Modify  | 12.809     | 13.115     | 13.414     |   7.9 | 19.39
Other   |            | 4.59       |            |       |  6.79

Nlocal:          72000 ave       72014 max       71980 min
Histogram: 1 0 0 0 0 0 1 1 0 1
Nghost:        8142.75 ave        8181 max        8108 min
Histogram: 1 1 0 0 0 0 0 1 0 1
Neighs:         255954 ave      256093 max      255876 min
Histogram: 2 0 0 1 0 0 0 0 0 1

Total # of neighbors = 1023818
Ave neighs/atom = 3.5549236
Neighbor list builds = 297
Dangerous builds = 0
Total wall time: 0:01:07
Intel(R) VTune(TM) Profiler 2022.2.0 collection completed successfully. Use the "aps --report /home/ubuntu/lammps/bench/aps_result_20220703" command to generate textual and HTML reports for the profiling session.
