LAMMPS (7 Jan 2022)
  using 1 OpenMP thread(s) per MPI task
Reading data file ...
  orthogonal box = (0 0 0) to (40 20 37.2886)
  4 by 2 by 4 MPI processor grid
  reading atoms ...
  32000 atoms
  reading velocities ...
  32000 velocities
  read_data CPU = 0.096 seconds
Replicating atoms ...
  orthogonal box = (0 0 0) to (80 40 37.292229)
  4 by 4 by 2 MPI processor grid
  128000 atoms
  replicate CPU = 0.013 seconds
3648 atoms in group bottom
124352 atoms in group active
  generated 0 of 1 mixed pair_coeff terms from geometric mixing rule
Neighbor list info ...
  update every 1 steps, delay 0 steps, check yes
  max neighbors/atom: 2000, page size: 100000
  master list distance cutoff = 1.1
  ghost atom cutoff = 1.1
  binsize = 0.55, bins = 146 73 68
  1 neighbor lists, perpetual/occasional/extra = 1 0 0
  (1) pair gran/hooke/history, perpetual
      attributes: half, newton off, size, history
      pair build: half/size/bin/newtoff
      stencil: full/bin/3d
      bin: standard
Setting up Verlet run ...
  Unit style    : lj
  Current step  : 0
  Time step     : 0.0001
Per MPI rank memory allocation (min/avg/max) = 10.39 | 10.39 | 10.39 Mbytes
Step Atoms KinEng c_1 Volume 
       0   128000    3136556.5    6404.5051    119335.13 
     100   128000    3137168.3    6284.3873    119338.83 
     200   128000    3137690.9    6295.4536    119344.92 
     300   128000    3138253.9    6321.8969    119350.91 
     400   128000    3138832.7    6288.9526     119356.6 
     500   128000    3139327.1    6256.1914    119362.78 
     600   128000    3139885.5    6257.8044    119368.93 
     700   128000    3140514.4    6209.8384    119374.78 
     800   128000      3141161    6220.8836    119380.33 
     900   128000    3141842.7    6183.5273    119385.59 
    1000   128000    3142288.8    6159.4689    119390.54 
    1100   128000    3142810.3    6135.2073     119395.2 
    1200   128000    3143288.2    6183.7341    119399.55 
    1300   128000    3143718.5    6199.7412    119403.61 
    1400   128000    3144046.3    6211.2795    119407.37 
    1500   128000    3144431.8      6264.59    119410.83 
    1600   128000    3144763.5    6293.3333    119413.98 
    1700   128000    3145075.2    6371.1729    119416.84 
    1800   128000    3145299.8    6424.1456    119418.58 
    1900   128000    3145503.5    6457.3245    119420.94 
    2000   128000    3145733.4    6475.4032    119423.01 
    2100   128000    3145949.1    6546.7892    119424.77 
    2200   128000    3146210.8    6562.6593    119426.23 
    2300   128000    3146458.3      6556.35     119427.4 
    2400   128000    3146759.5    6534.0475    119428.26 
    2500   128000    3147000.7    6528.2226    119428.83 
    2600   128000    3147183.5    6556.5282    119429.09 
    2700   128000      3147337    6595.6474    119429.27 
    2800   128000    3147430.6    6600.2907    119429.94 
    2900   128000    3147552.9    6615.7645    119430.31 
    3000   128000    3147617.9    6614.7237    119430.37 
    3100   128000    3147736.1    6664.4197    119430.14 
    3200   128000    3147883.3    6707.8228    119429.61 
    3300   128000    3148166.4    6677.7917    119428.78 
    3400   128000    3148451.8    6662.4484    119427.66 
    3500   128000    3148748.7    6652.9703    119426.29 
    3600   128000      3149040    6622.2733    119424.62 
    3700   128000    3149258.8    6632.5494    119422.68 
    3800   128000    3149465.3    6644.0345    119420.38 
    3900   128000    3149658.9    6650.2674    119417.79 
    4000   128000    3149851.9    6655.8514    119415.89 
    4100   128000    3149982.5    6625.7513    119416.16 
    4200   128000    3150033.8    6641.2095    119416.63 
    4300   128000    3150086.8    6621.0693    119416.79 
    4400   128000    3150108.1     6661.364    119416.65 
    4500   128000    3150128.5    6699.4269    119416.21 
    4600   128000    3150146.5    6726.5762    119415.48 
    4700   128000    3150209.2    6728.3965    119414.44 
    4800   128000    3150279.3    6734.7913    119413.11 
    4900   128000    3150363.3    6762.7012    119411.47 
    5000   128000      3150424    6799.2087    119409.54 
    5100   128000      3150504    6838.6948    119407.43 
    5200   128000    3150650.5    6860.9592     119405.4 
    5300   128000    3150846.3    6883.9571    119403.07 
    5400   128000    3151094.4    6905.6677    119400.44 
    5500   128000    3151355.5    6904.2458    119397.52 
    5600   128000    3151617.4    6897.2002    119394.29 
    5700   128000      3151853    6888.0959    119391.97 
    5800   128000    3152084.4    6892.7093    119388.32 
    5900   128000    3152321.5    6881.0548    119383.07 
    6000   128000    3152561.9    6872.5609     119378.8 
    6100   128000    3152840.6    6850.4048    119376.33 
    6200   128000      3153140    6823.6659    119374.46 
    6300   128000    3153424.8    6829.8892    119373.03 
    6400   128000    3153743.2    6797.8701    119371.32 
    6500   128000    3154083.6    6774.5821    119369.33 
    6600   128000    3154467.6     6735.594    119367.05 
    6700   128000    3154816.2    6706.4093     119364.5 
    6800   128000    3155205.9    6677.6226    119361.66 
    6900   128000    3155561.8    6667.8087    119359.69 
    7000   128000    3155909.2    6660.2187    119359.21 
    7100   128000    3156239.6    6644.6847    119358.42 
    7200   128000    3156547.4    6649.8836    119357.34 
    7300   128000    3156831.9    6639.5283    119356.45 
    7400   128000    3157096.9     6619.673    119354.87 
    7500   128000    3157339.9    6604.8308    119352.99 
    7600   128000    3157544.9    6620.5106    119350.81 
    7700   128000    3157702.1    6632.9583    119348.33 
    7800   128000    3157867.4    6670.4932    119345.56 
    7900   128000    3158075.4    6660.1576    119342.48 
    8000   128000      3158233    6655.5289     119339.1 
    8100   128000    3158357.3    6667.0601    119335.43 
    8200   128000    3158483.7    6695.7328    119331.53 
    8300   128000    3158592.2    6719.2574    119327.39 
    8400   128000    3158714.3    6718.4574    119322.97 
    8500   128000    3158789.7     6712.394    119318.27 
    8600   128000    3158836.8    6719.1273    119313.29 
    8700   128000    3158845.2    6745.0618    119308.02 
    8800   128000    3158830.2    6778.4292    119302.47 
    8900   128000    3158829.8    6781.3796    119296.64 
    9000   128000    3158796.5    6805.6024    119290.53 
    9100   128000    3158704.1    6821.9427    119284.14 
    9200   128000    3158642.5    6830.3978    119277.46 
    9300   128000    3158556.3    6849.3322     119270.5 
    9400   128000    3158487.4     6833.537    119263.26 
    9500   128000    3158352.8    6871.5361    119255.74 
    9600   128000    3158255.6    6863.2508    119247.94 
    9700   128000    3158146.3     6885.785    119239.85 
    9800   128000    3158046.8     6891.911    119252.99 
    9900   128000    3157939.8    6893.2745    119267.74 
   10000   128000    3157880.9    6903.4401    119282.22 
Loop time of 4.83325 on 32 procs for 10000 steps with 128000 atoms

Performance: 17876.188 tau/day, 2069.003 timesteps/s
99.5% CPU use with 32 MPI tasks x 1 OpenMP threads

MPI task timing breakdown:
Section |  min time  |  avg time  |  max time  |%varavg| %total
---------------------------------------------------------------
Pair    | 1.5965     | 2.0472     | 2.4521     |  19.3 | 42.36
Neigh   | 0.67161    | 0.7591     | 0.79422    |   4.2 | 15.71
Comm    | 0.52991    | 0.56336    | 0.59347    |   2.6 | 11.66
Output  | 0.0045537  | 0.0088914  | 0.015337   |   3.2 |  0.18
Modify  | 0.66415    | 0.74721    | 0.78647    |   4.1 | 15.46
Other   |            | 0.7075     |            |       | 14.64

Nlocal:           4000 ave        4019 max        3981 min
Histogram: 4 2 4 5 2 2 0 6 3 4
Nghost:        1744.97 ave        1758 max        1729 min
Histogram: 2 1 4 1 7 3 3 4 5 2
Neighs:        15092.5 ave       15501 max       14670 min
Histogram: 7 9 0 0 0 0 0 0 8 8

Total # of neighbors = 482960
Ave neighs/atom = 3.773125
Neighbor list builds = 297
Dangerous builds = 0
Total wall time: 0:00:04
Intel(R) VTune(TM) Profiler 2022.2.0 collection completed successfully. Use the "aps --report /home/ubuntu/lammps/bench/aps_result_20220703" command to generate textual and HTML reports for the profiling session.
