LAMMPS (7 Jan 2022)
  using 1 OpenMP thread(s) per MPI task
Reading data file ...
  orthogonal box = (-16.796 -16.796 -16.796) to (16.796 16.796 16.796)
  2 by 2 by 4 MPI processor grid
  reading atoms ...
  32000 atoms
  reading velocities ...
  32000 velocities
  scanning bonds ...
  1 = max bonds/atom
  reading bonds ...
  31680 bonds
Finding 1-2 1-3 1-4 neighbors ...
  special bond factors lj:    0        1        1       
  special bond factors coul:  0        1        1       
     2 = max # of 1-2 neighbors
     2 = max # of special neighbors
  special bonds CPU = 0.002 seconds
  read_data CPU = 0.203 seconds
----------------------------------------------------------
Using INTEL Package without Coprocessor.
Compiler: Intel Classic C++ 20.21.5 / Intel(R) C++ g++ 9.3 mode
SIMD compiler directives: Enabled
Precision: mixed
----------------------------------------------------------
  generated 0 of 0 mixed pair_coeff terms from geometric mixing rule
Neighbor list info ...
  update every 1 steps, delay 1 steps, check yes
  max neighbors/atom: 2000, page size: 100000
  master list distance cutoff = 1.52
  ghost atom cutoff = 1.52
  binsize = 0.76, bins = 45 45 45
  1 neighbor lists, perpetual/occasional/extra = 1 0 0
  (1) pair lj/cut/intel, perpetual
      attributes: half, newton on, intel
      pair build: half/bin/newton/intel
      stencil: half/bin/3d
      bin: intel
Setting up Verlet run ...
  Unit style    : lj
  Current step  : 0
  Time step     : 0.012
WARNING: Communication cutoff 1.52 is shorter than a bond length based estimate of 1.855. This may lead to errors. (../comm.cpp:723)
Per MPI rank memory allocation (min/avg/max) = 21.26 | 21.44 | 21.58 Mbytes
Step Temp E_pair E_mol TotEng Press 
       0   0.97029772   0.44484085    20.494523    22.394765    4.6721835 
     100   0.97460628    0.4379072    20.507359     22.40713    4.6921818 
Loop time of 0.112464 on 16 procs for 100 steps with 32000 atoms

Performance: 921898.043 tau/day, 889.176 timesteps/s
89.5% CPU use with 16 MPI tasks x 1 OpenMP threads

MPI task timing breakdown:
Section |  min time  |  avg time  |  max time  |%varavg| %total
---------------------------------------------------------------
Pair    | 0.012412   | 0.015765   | 0.016526   |   0.7 | 14.02
Bond    | 0.0021339  | 0.0026779  | 0.0027947  |   0.3 |  2.38
Neigh   | 0.030439   | 0.039076   | 0.039686   |   1.1 | 34.75
Comm    | 0.026326   | 0.028443   | 0.052995   |   3.8 | 25.29
Output  | 2.7413e-05 | 3.2505e-05 | 5.4287e-05 |   0.0 |  0.03
Modify  | 0.0096811  | 0.012138   | 0.01239    |   0.6 | 10.79
Other   |            | 0.01433    |            |       | 12.74

Nlocal:           2000 ave        2023 max        1969 min
Histogram: 1 0 0 1 3 5 3 0 1 2
Nghost:        1799.94 ave        1832 max        1779 min
Histogram: 4 0 2 3 1 1 3 1 0 1
Neighs:          11710 ave       11980 max       11402 min
Histogram: 1 0 0 2 6 2 2 1 0 2

Total # of neighbors = 187360
Ave neighs/atom = 5.855
Ave special neighs/atom = 1.98
Neighbor list builds = 25
Dangerous builds = 0
Total wall time: 0:00:00
Intel(R) VTune(TM) Profiler 2022.2.0 collection completed successfully. Use the "aps --report /home/ubuntu/lammps/bench/aps_result_20220526" command to generate textual and HTML reports for the profiling session.
