LAMMPS (7 Jan 2022)
  using 1 OpenMP thread(s) per MPI task
New timer settings: style=full  mode=nosync  timeout=off
Reading data file ...
  orthogonal box = (0 0 0) to (40 20 37.2886)
  2 by 1 by 2 MPI processor grid
  reading atoms ...
  32000 atoms
  reading velocities ...
  32000 velocities
  read_data CPU = 0.104 seconds
912 atoms in group bottom
31088 atoms in group active
  generated 0 of 1 mixed pair_coeff terms from geometric mixing rule
Neighbor list info ...
  update every 1 steps, delay 0 steps, check yes
  max neighbors/atom: 2000, page size: 100000
  master list distance cutoff = 1.1
  ghost atom cutoff = 1.1
  binsize = 0.55, bins = 73 37 68
  1 neighbor lists, perpetual/occasional/extra = 1 0 0
  (1) pair gran/hooke/history, perpetual
      attributes: half, newton off, size, history
      pair build: half/size/bin/newtoff
      stencil: full/bin/3d
      bin: standard
Setting up Verlet run ...
  Unit style    : lj
  Current step  : 0
  Time step     : 0.0001
Per MPI rank memory allocation (min/avg/max) = 10.59 | 10.59 | 10.6 Mbytes
Step Atoms KinEng c_1 Volume 
       0    32000    784139.13    1601.1263    29833.783 
     100    32000    784292.08    1571.0968    29834.707 
Loop time of 0.0975083 on 4 procs for 100 steps with 32000 atoms

Performance: 8860.787 tau/day, 1025.554 timesteps/s
96.2% CPU use with 4 MPI tasks x 1 OpenMP threads

MPI task timing breakdown:
Section |  min time  |  avg time  |  max time  |%varavg|  %CPU | %total
-----------------------------------------------------------------------
Pair    | 0.040214   | 0.043516   | 0.046897   |   1.6 |  96.7 | 44.63
Neigh   | 0.010731   | 0.010804   | 0.010978   |   0.1 |  98.8 | 11.08
Comm    | 0.010727   | 0.011477   | 0.01224    |   0.7 |  96.4 | 11.77
Output  | 6.0178e-05 | 8.4958e-05 | 0.00011031 |   0.0 |  99.7 |  0.09
Modify  | 0.018171   | 0.01941    | 0.021283   |   0.9 |  94.5 | 19.91
Other   |            | 0.01222    |            |       |       | 12.53

Nlocal:           8000 ave        8008 max        7992 min
Histogram: 2 0 0 0 0 0 0 0 0 2
Nghost:           2439 ave        2450 max        2428 min
Histogram: 2 0 0 0 0 0 0 0 0 2
Neighs:        29500.5 ave       30488 max       28513 min
Histogram: 2 0 0 0 0 0 0 0 0 2

Total # of neighbors = 118002
Ave neighs/atom = 3.6875625
Neighbor list builds = 2
Dangerous builds = 0
Total wall time: 0:00:00
Intel(R) VTune(TM) Profiler 2022.2.0 collection completed successfully. Use the "aps --report /home/ubuntu/lammps/bench/aps_result_20220519" command to generate textual and HTML reports for the profiling session.
