LAMMPS (7 Jan 2022)
  using 1 OpenMP thread(s) per MPI task
Reading data file ...
  orthogonal box = (0 0 0) to (40 20 37.2886)
  4 by 2 by 2 MPI processor grid
  reading atoms ...
  32000 atoms
  reading velocities ...
  32000 velocities
  read_data CPU = 0.105 seconds
912 atoms in group bottom
31088 atoms in group active
  generated 0 of 1 mixed pair_coeff terms from geometric mixing rule
Neighbor list info ...
  update every 1 steps, delay 0 steps, check yes
  max neighbors/atom: 2000, page size: 100000
  master list distance cutoff = 1.1
  ghost atom cutoff = 1.1
  binsize = 0.55, bins = 73 37 68
  1 neighbor lists, perpetual/occasional/extra = 1 0 0
  (1) pair gran/hooke/history, perpetual
      attributes: half, newton off, size, history
      pair build: half/size/bin/newtoff
      stencil: full/bin/3d
      bin: standard
Setting up Verlet run ...
  Unit style    : lj
  Current step  : 0
  Time step     : 0.0001
Per MPI rank memory allocation (min/avg/max) = 10.17 | 10.17 | 10.18 Mbytes
Step Atoms KinEng c_1 Volume 
       0    32000    784139.13    1601.1263    29833.783 
     100    32000    784292.08    1571.0968    29834.707 
     200    32000    784422.71    1573.8634     29836.23 
     300    32000    784563.48    1580.4742    29837.727 
     400    32000    784708.17    1572.2381     29839.15 
     500    32000    784831.77    1564.0479    29840.694 
     600    32000    784971.37    1564.4511    29842.232 
     700    32000     785128.6    1552.4596    29843.695 
     800    32000    785290.26    1555.2209    29845.083 
     900    32000    785460.68    1545.8818    29846.397 
    1000    32000    785572.21    1539.8672    29847.635 
    1100    32000    785702.57    1533.8018    29848.799 
    1200    32000    785822.06    1545.9335    29849.888 
    1300    32000    785929.63    1549.9353    29850.902 
    1400    32000    786011.56    1552.8199    29851.841 
    1500    32000    786107.94    1566.1477    29852.706 
    1600    32000    786190.87    1573.3323    29853.496 
    1700    32000     786268.8    1592.7949    29854.211 
    1800    32000    786324.94    1606.0429    29854.646 
    1900    32000    786375.84    1614.3405    29855.236 
    2000    32000    786433.32    1618.8645    29855.751 
    2100    32000    786487.22    1636.6863    29856.192 
    2200    32000    786552.82    1640.6544    29856.558 
    2300    32000    786614.66    1639.1786    29856.849 
    2400    32000    786690.17    1633.2087    29857.065 
    2500    32000    786750.14    1631.8369    29857.206 
    2600    32000    786796.45    1639.2966    29857.273 
    2700    32000    786838.02    1646.9826    29857.318 
    2800    32000    786860.11    1647.0426    29857.485 
    2900    32000    786893.46    1652.8121    29857.576 
    3000    32000    786907.45    1659.3639    29857.593 
    3100    32000    786941.28    1666.6052    29857.535 
    3200    32000    786984.87    1669.1597    29857.403 
    3300    32000    787049.86    1674.3055    29857.195 
    3400    32000     787118.8    1669.3593    29856.916 
    3500    32000    787205.08    1664.2508    29856.571 
    3600    32000    787277.43    1659.3938    29856.156 
    3700    32000    787344.28    1653.4988    29855.664 
    3800    32000    787386.93    1657.8064    29855.089 
    3900    32000    787440.48    1653.5397    29854.664 
    4000    32000    787482.97    1654.8609    29853.965 
    4100    32000    787526.06    1655.6995    29853.301 
    4200    32000    787538.92    1667.3178    29853.436 
    4300    32000    787568.17    1657.8599    29853.527 
    4400    32000    787578.24     1644.421    29853.544 
    4500    32000    787576.72     1665.633    29853.486 
    4600    32000    787592.93    1674.4617    29853.353 
    4700    32000    787619.99    1682.0736    29853.145 
    4800    32000    787655.58     1679.685    29852.863 
    4900    32000    787686.37    1684.7093    29852.505 
    5000    32000    787723.68    1684.5589    29852.073 
    5100    32000    787748.34    1687.4827    29851.566 
    5200    32000    787766.18    1706.6962    29850.984 
    5300    32000    787795.24    1713.6127    29850.328 
    5400    32000    787863.65    1721.3702    29849.612 
    5500    32000    787925.72    1721.2041    29848.832 
    5600    32000    787995.17    1727.7835    29847.972 
    5700    32000    788069.98    1723.6985    29847.021 
    5800    32000    788138.43     1721.487    29845.996 
    5900    32000    788200.46    1710.9736    29844.896 
    6000    32000    788245.39    1711.2953    29844.121 
    6100    32000    788293.01    1711.1324    29842.896 
    6200    32000    788344.97    1713.2894     29841.77 
    6300    32000    788436.85    1706.4604     29841.24 
    6400    32000    788524.83    1698.3901    29840.639 
    6500    32000    788606.38    1703.1121    29839.967 
    6600    32000     788709.4    1700.1567    29839.225 
    6700    32000    788817.67    1690.0121    29838.412 
    6800    32000    788923.88     1688.432    29837.695 
    6900    32000    789034.74     1669.405    29836.973 
    7000    32000    789139.65    1667.9045    29836.178 
    7100    32000    789232.12    1664.0715    29835.307 
    7200    32000    789325.85    1654.9101    29834.361 
    7300    32000    789402.02    1653.8818    29833.341 
    7400    32000    789460.06    1658.6309    29832.246 
    7500    32000    789510.39    1654.3882    29831.076 
    7600    32000    789568.79     1653.736    29829.831 
    7700    32000    789608.07    1655.7623    29828.607 
    7800    32000    789668.92    1653.1262    29827.308 
    7900    32000    789710.01    1654.6034    29825.935 
    8000    32000    789748.42    1653.6077    29824.487 
    8100    32000     789776.7    1657.5359    29822.964 
    8200    32000    789786.68    1660.4288    29821.366 
    8300    32000    789781.39    1671.7661    29819.693 
    8400    32000    789777.44    1676.9371    29818.537 
    8500    32000     789770.2    1685.5561    29816.739 
    8600    32000    789747.73    1691.4925    29814.867 
    8700    32000    789713.47    1697.4555    29812.959 
    8800    32000     789674.1    1701.7104    29810.959 
    8900    32000    789606.06     1716.005     29809.22 
    9000    32000    789535.68    1727.5303    29808.993 
    9100    32000    789457.78    1744.6863    29808.695 
    9200    32000    789396.17    1759.1129    29808.327 
    9300    32000    789362.87    1748.3738    29807.726 
    9400    32000    789285.54    1753.1464    29807.193 
    9500    32000    789218.48    1749.6345     29806.59 
    9600    32000    789176.23    1746.9247    29805.917 
    9700    32000    789139.11    1744.7127    29805.173 
    9800    32000    789118.93    1739.5524    29806.537 
    9900    32000    789097.06    1739.8931      29809.8 
   10000    32000     789089.1    1744.3206    29813.088 
Loop time of 2.72032 on 16 procs for 10000 steps with 32000 atoms

Performance: 31760.975 tau/day, 3676.039 timesteps/s
98.6% CPU use with 16 MPI tasks x 1 OpenMP threads

MPI task timing breakdown:
Section |  min time  |  avg time  |  max time  |%varavg| %total
---------------------------------------------------------------
Pair    | 0.82425    | 0.99601    | 1.1906     |  14.4 | 36.61
Neigh   | 0.39117    | 0.42062    | 0.44811    |   2.1 | 15.46
Comm    | 0.44451    | 0.47299    | 0.50366    |   2.4 | 17.39
Output  | 0.0040295  | 0.0059234  | 0.0081829  |   1.8 |  0.22
Modify  | 0.38312    | 0.40376    | 0.42764    |   1.8 | 14.84
Other   |            | 0.421      |            |       | 15.48

Nlocal:           2000 ave        2017 max        1981 min
Histogram: 2 0 1 2 3 2 1 1 1 3
Nghost:        1151.38 ave        1175 max        1136 min
Histogram: 2 2 4 1 3 0 0 1 1 2
Neighs:        7716.88 ave        7948 max        7406 min
Histogram: 3 0 1 3 1 0 0 0 3 5

Total # of neighbors = 123470
Ave neighs/atom = 3.8584375
Neighbor list builds = 296
Dangerous builds = 0
Total wall time: 0:00:02
Intel(R) VTune(TM) Profiler 2022.2.0 collection completed successfully. Use the "aps --report /home/ubuntu/lammps/bench/aps_result_20220703" command to generate textual and HTML reports for the profiling session.
