LAMMPS (7 Jan 2022)
  using 1 OpenMP thread(s) per MPI task
Reading data file ...
  orthogonal box = (0 0 0) to (40 20 37.2886)
  4 by 2 by 2 MPI processor grid
  reading atoms ...
  32000 atoms
  reading velocities ...
  32000 velocities
  read_data CPU = 0.092 seconds
Replicating atoms ...
  orthogonal box = (0 0 0) to (120 60 37.292229)
  4 by 2 by 2 MPI processor grid
  288000 atoms
  replicate CPU = 0.023 seconds
8208 atoms in group bottom
279792 atoms in group active
  generated 0 of 1 mixed pair_coeff terms from geometric mixing rule
Neighbor list info ...
  update every 1 steps, delay 0 steps, check yes
  max neighbors/atom: 2000, page size: 100000
  master list distance cutoff = 1.1
  ghost atom cutoff = 1.1
  binsize = 0.55, bins = 219 110 68
  1 neighbor lists, perpetual/occasional/extra = 1 0 0
  (1) pair gran/hooke/history, perpetual
      attributes: half, newton off, size, history
      pair build: half/size/bin/newtoff
      stencil: full/bin/3d
      bin: standard
Setting up Verlet run ...
  Unit style    : lj
  Current step  : 0
  Time step     : 0.0001
Per MPI rank memory allocation (min/avg/max) = 15.6 | 15.6 | 15.6 Mbytes
Step Atoms KinEng c_1 Volume 
       0   288000    7057252.2    14410.137    268504.05 
     100   288000    7058628.7    14139.871    268512.37 
Loop time of 0.215878 on 16 procs for 100 steps with 288000 atoms

Performance: 4002.254 tau/day, 463.224 timesteps/s
98.6% CPU use with 16 MPI tasks x 1 OpenMP threads

MPI task timing breakdown:
Section |  min time  |  avg time  |  max time  |%varavg| %total
---------------------------------------------------------------
Pair    | 0.089266   | 0.095442   | 0.10124    |   1.5 | 44.21
Neigh   | 0.023714   | 0.023955   | 0.024142   |   0.1 | 11.10
Comm    | 0.020779   | 0.022322   | 0.023902   |   0.8 | 10.34
Output  | 0.00016735 | 0.00024497 | 0.00031014 |   0.0 |  0.11
Modify  | 0.046367   | 0.0497     | 0.056326   |   1.3 | 23.02
Other   |            | 0.02421    |            |       | 11.22

Nlocal:          18000 ave       18027 max       17979 min
Histogram: 4 4 0 0 0 0 4 0 0 4
Nghost:        3973.75 ave        4019 max        3930 min
Histogram: 4 0 0 4 0 0 4 0 0 4
Neighs:        65334.2 ave       67541 max       63076 min
Histogram: 8 0 0 0 0 0 0 0 0 8

Total # of neighbors = 1045348
Ave neighs/atom = 3.6296806
Neighbor list builds = 2
Dangerous builds = 0
Total wall time: 0:00:00
Intel(R) VTune(TM) Profiler 2022.2.0 collection completed successfully. Use the "aps --report /home/ubuntu/lammps/bench/aps_result_20220601" command to generate textual and HTML reports for the profiling session.
