LAMMPS (7 Jan 2022)
  using 1 OpenMP thread(s) per MPI task
New timer settings: style=full  mode=nosync  timeout=off
Reading data file ...
  orthogonal box = (-16.796 -16.796 -16.796) to (16.796 16.796 16.796)
  1 by 2 by 2 MPI processor grid
  reading atoms ...
  32000 atoms
  reading velocities ...
  32000 velocities
  scanning bonds ...
  1 = max bonds/atom
  reading bonds ...
  31680 bonds
Finding 1-2 1-3 1-4 neighbors ...
  special bond factors lj:    0        1        1       
  special bond factors coul:  0        1        1       
     2 = max # of 1-2 neighbors
     2 = max # of special neighbors
  special bonds CPU = 0.002 seconds
  read_data CPU = 0.118 seconds
Replicating atoms ...
  orthogonal box = (-16.796 -16.796 -16.796) to (83.98 83.98 83.98)
  2 by 1 by 2 MPI processor grid
  864000 atoms
  855360 bonds
Finding 1-2 1-3 1-4 neighbors ...
  special bond factors lj:    0        1        1       
  special bond factors coul:  0        1        1       
     2 = max # of 1-2 neighbors
     2 = max # of special neighbors
  special bonds CPU = 0.059 seconds
  replicate CPU = 0.108 seconds
----------------------------------------------------------
Using INTEL Package without Coprocessor.
Compiler: Intel Classic C++ 20.21.5 / Intel(R) C++ g++ 9.3 mode
SIMD compiler directives: Enabled
Precision: mixed
----------------------------------------------------------
  generated 0 of 0 mixed pair_coeff terms from geometric mixing rule
Neighbor list info ...
  update every 1 steps, delay 1 steps, check yes
  max neighbors/atom: 2000, page size: 100000
  master list distance cutoff = 1.52
  ghost atom cutoff = 1.52
  binsize = 0.76, bins = 133 133 133
  1 neighbor lists, perpetual/occasional/extra = 1 0 0
  (1) pair lj/cut/intel, perpetual
      attributes: half, newton on, intel
      pair build: half/bin/newton/intel
      stencil: half/bin/3d
      bin: intel
Setting up Verlet run ...
  Unit style    : lj
  Current step  : 0
  Time step     : 0.012
WARNING: Communication cutoff 1.52 is shorter than a bond length based estimate of 1.855. This may lead to errors. (../comm.cpp:723)
Per MPI rank memory allocation (min/avg/max) = 1904 | 1904 | 1905 Mbytes
Step Temp E_pair E_mol TotEng Press 
       0   0.97026852   0.44484092    20.494523    22.394765    4.6721839 
     100   0.97324966   0.44114411    20.501778    22.402795    4.6961146 
Loop time of 6.09558 on 4 procs for 100 steps with 864000 atoms

Performance: 17009.046 tau/day, 16.405 timesteps/s
97.7% CPU use with 4 MPI tasks x 1 OpenMP threads

MPI task timing breakdown:
Section |  min time  |  avg time  |  max time  |%varavg|  %CPU | %total
-----------------------------------------------------------------------
Pair    | 1.5503     | 1.5942     | 1.6463     |   3.3 |  98.9 | 26.15
Bond    | 0.30655    | 0.31562    | 0.32677    |   1.5 |  98.7 |  5.18
Neigh   | 1.4005     | 1.4029     | 1.4055     |   0.2 |  98.7 | 23.02
Comm    | 1.1841     | 1.2535     | 1.3097     |   5.0 |  94.9 | 20.56
Output  | 0.00094205 | 0.0011379  | 0.0012922  |   0.4 | 100.0 |  0.02
Modify  | 1.2431     | 1.2886     | 1.3439     |   3.8 |  97.9 | 21.14
Other   |            | 0.2395     |            |       |       |  3.93

Nlocal:         216000 ave      216305 max      215724 min
Histogram: 1 1 0 0 0 0 0 1 0 1
Nghost:        34171.2 ave       34260 max       34061 min
Histogram: 1 0 0 0 0 1 0 1 0 1
Neighs:    1.26549e+06 ave 1.26858e+06 max 1.26262e+06 min
Histogram: 1 1 0 0 0 0 0 0 1 1

Total # of neighbors = 5061964
Ave neighs/atom = 5.8587546
Ave special neighs/atom = 1.98
Neighbor list builds = 26
Dangerous builds = 0
Total wall time: 0:00:06
Intel(R) VTune(TM) Profiler 2022.2.0 collection completed successfully. Use the "aps --report /home/ubuntu/lammps/bench/aps_result_20220519" command to generate textual and HTML reports for the profiling session.
