LAMMPS (7 Jan 2022)
  using 1 OpenMP thread(s) per MPI task
Reading data file ...
  orthogonal box = (-16.796 -16.796 -16.796) to (16.796 16.796 16.796)
  1 by 1 by 2 MPI processor grid
  reading atoms ...
  32000 atoms
  reading velocities ...
  32000 velocities
  scanning bonds ...
  1 = max bonds/atom
  reading bonds ...
  31680 bonds
Finding 1-2 1-3 1-4 neighbors ...
  special bond factors lj:    0        1        1       
  special bond factors coul:  0        1        1       
     2 = max # of 1-2 neighbors
     2 = max # of special neighbors
  special bonds CPU = 0.004 seconds
  read_data CPU = 0.132 seconds
Replicating atoms ...
  orthogonal box = (-16.796 -16.796 -16.796) to (50.388 50.388 50.388)
  1 by 1 by 2 MPI processor grid
  256000 atoms
  253440 bonds
Finding 1-2 1-3 1-4 neighbors ...
  special bond factors lj:    0        1        1       
  special bond factors coul:  0        1        1       
     2 = max # of 1-2 neighbors
     2 = max # of special neighbors
  special bonds CPU = 0.028 seconds
  replicate CPU = 0.054 seconds
----------------------------------------------------------
Using INTEL Package without Coprocessor.
Compiler: Intel Classic C++ 20.21.5 / Intel(R) C++ g++ 9.3 mode
SIMD compiler directives: Enabled
Precision: mixed
----------------------------------------------------------
  generated 0 of 0 mixed pair_coeff terms from geometric mixing rule
Neighbor list info ...
  update every 1 steps, delay 1 steps, check yes
  max neighbors/atom: 2000, page size: 100000
  master list distance cutoff = 1.52
  ghost atom cutoff = 1.52
  binsize = 0.76, bins = 89 89 89
  1 neighbor lists, perpetual/occasional/extra = 1 0 0
  (1) pair lj/cut/intel, perpetual
      attributes: half, newton on, intel
      pair build: half/bin/newton/intel
      stencil: half/bin/3d
      bin: intel
Setting up Verlet run ...
  Unit style    : lj
  Current step  : 0
  Time step     : 0.012
WARNING: Communication cutoff 1.52 is shorter than a bond length based estimate of 1.855. This may lead to errors. (../comm.cpp:723)
Per MPI rank memory allocation (min/avg/max) = 1131 | 1131 | 1131 Mbytes
Step Temp E_pair E_mol TotEng Press 
       0   0.97027119   0.44484088    20.494523    22.394765    4.6721834 
     100   0.97336452    0.4422851    20.502509    22.404836    4.6935711 
     200   0.97996558   0.44153559    20.502836    22.414314    4.7144593 
     300   0.98046593   0.44448485    20.507009    22.422187    4.7014948 
     400   0.98386807   0.44446507     20.50814    22.428402    4.7293234 
     500    0.9858034   0.44943062    20.507374    22.435504    4.7650501 
     600   0.99085293   0.44794879    20.507227    22.441449    4.7418498 
     700   0.98740875   0.45200844    20.509727    22.442842    4.7445456 
     800   0.99086879   0.44632546     20.51238    22.445003    4.7382444 
     900   0.99030585   0.44852027    20.512264    22.446237    4.7616351 
    1000   0.99178558   0.44994026    20.511055    22.448668    4.7677707 
    1100   0.99266522   0.44924859     20.51288     22.45112    4.7551146 
    1200   0.99246783   0.45178295    20.513874    22.454353    4.8046841 
    1300   0.99542453   0.45090041    20.513565    22.457596    4.7606212 
    1400   0.99775571   0.45120099    20.512532    22.460361     4.800767 
    1500   0.99864654   0.45199903    20.514934    22.464897    4.7800251 
    1600   0.99843327   0.45317276    20.514949    22.465766    4.7996177 
    1700    1.0002627   0.45434798    20.514588    22.469324    4.8103918 
    1800    1.0011491   0.45377464    20.515441    22.470934    4.7960661 
    1900   0.99968245   0.45223497    20.518073    22.469826    4.7852691 
    2000    0.9998894   0.45551857    20.513956    22.469303     4.809181 
    2100   0.99978287   0.45511002    20.516158    22.470936    4.7939911 
    2200    1.0015955   0.45406977    20.515518    22.471975    4.7752932 
    2300   0.99915505   0.45420811     20.51777    22.470705    4.7809166 
    2400    1.0013136   0.45378682     20.51579    22.471541    4.8065084 
    2500    1.0002709   0.45709424    20.512846     22.47034     4.779827 
    2600    1.0007331   0.45378247    20.514605    22.469482     4.819637 
    2700   0.99901408   0.45552467      20.5165     22.47054    4.8088243 
    2800   0.99991031   0.45301773    20.514638    22.467515    4.7869657 
    2900   0.99886731   0.45241878    20.516187    22.466901    4.8048209 
    3000   0.99826233   0.45167258    20.516652    22.465712    4.7737272 
    3100   0.99934329   0.45325962    20.514801     22.46707    4.7809666 
    3200   0.99851442   0.45283644    20.516495    22.467097    4.7725458 
    3300    1.0001027   0.45054576    20.514578    22.465272    4.7634391 
    3400   0.99971885   0.45408074    20.513062    22.466716    4.7925229 
    3500   0.99840066   0.45399707    20.514654    22.466247    4.7926525 
    3600   0.99845201   0.45293312    20.513398    22.464004     4.802432 
    3700   0.99566574   0.45386796    20.518641    22.466002    4.7935143 
    3800   0.99726072   0.45361694    20.514657    22.464159    4.7952271 
    3900   0.99962333   0.45198154     20.51517     22.46658    4.7708484 
    4000    1.0000121   0.45517009    20.514818    22.470001    4.7877029 
    4100    0.9994914   0.45267418    20.516792    22.468698    4.8037314 
    4200    1.0007116   0.45268989    20.516685    22.470436    4.8047132 
    4300    1.0025715   0.45371391    20.516073    22.473639    4.7716569 
    4400    1.0021989   0.45546463     20.51624    22.474997    4.7726599 
    4500     1.003261   0.45419247    20.517246    22.476324    4.7776306 
    4600    1.0056734   0.45438106    20.515035     22.47792    4.8085625 
    4700    1.0018765    0.4547788    20.516896    22.474483    4.7901049 
    4800     1.000918   0.45685367    20.515277    22.473502    4.7787492 
    4900    1.0026389   0.45410746    20.517461    22.475521    4.7970589 
    5000    1.0021398   0.45497211    20.517941    22.476117    4.7953453 
    5100    1.0001915   0.45691971    20.517011    22.474212    4.7791964 
    5200    1.0027527   0.45388553    20.516127    22.474136    4.7775821 
    5300    1.0015539   0.45387157    20.518272    22.474469    4.8225531 
    5400    1.0020395    0.4553151    20.516911    22.475279    4.8037191 
    5500    1.0007853   0.45437919    20.516252    22.471803    4.8164299 
    5600    1.0012092   0.45614228    20.514453    22.472403    4.8001126 
    5700    1.0014854   0.45603691    20.514888    22.473148    4.7731167 
    5800    1.0041971   0.45329819    20.516342     22.47593    4.8000496 
    5900    1.0052221   0.45324178     20.51497    22.476039    4.8292482 
    6000    1.0053687   0.45554609     20.51363    22.477224    4.7736141 
    6100    1.0036946   0.45319958    20.517218    22.475953    4.7968136 
    6200    1.0024058   0.45360054    20.515977     22.47318    4.8121471 
    6300    1.0029991    0.4537389    20.516014    22.474246    4.7876342 
    6400    1.0011722   0.45511296    20.515361    22.472227    4.8077553 
    6500     1.001183   0.45589518    20.515133    22.472797     4.800526 
    6600     1.001202   0.45328582    20.518189    22.473272    4.7968109 
    6700   0.99935608   0.45509361    20.518583    22.472705    4.7973196 
    6800    1.0022144   0.45426725    20.515681    22.473264    4.8231285 
    6900    1.0028891   0.45250698    20.514823    22.471658    4.7863656 
    7000     1.000665   0.45452501    20.517752    22.473269    4.8038985 
    7100   0.99784396   0.45532085    20.517174    22.469255    4.7849978 
    7200    1.0015665   0.45347938     20.51566    22.471483    4.7918395 
    7300    1.0018505   0.45332115    20.517226    22.473317    4.7724783 
    7400    1.0011876   0.45321483    20.516916    22.471907    4.7787174 
    7500    1.0018549   0.45364902    20.516254    22.472679    4.8245482 
    7600    1.0008362   0.45418584     20.51518    22.470615     4.750642 
    7700    1.0017926   0.45377617    20.514407    22.470867    4.7878355 
    7800    1.0014499   0.45352555    20.517809    22.473503    4.7791714 
    7900     1.004183   0.45279637    20.515135      22.4742    4.8018109 
    8000    1.0031966   0.45289226    20.516621    22.474302    4.7737249 
    8100    1.0020777   0.45333373    20.517827    22.474272    4.7678134 
    8200    1.0015716   0.45391525    20.517106    22.473373     4.781601 
    8300    1.0024715   0.45395219    20.515931    22.473585    4.7663688 
    8400    1.0024583   0.45239841    20.517694    22.473774    4.7744372 
    8500    1.0007966   0.45502211    20.514935    22.471147    4.7907698 
    8600    1.0014743   0.45396543    20.515358    22.471529    4.7927048 
    8700    1.0007162    0.4516571    20.517556    22.470282    4.7698614 
    8800    1.0007271    0.4533808    20.514415    22.468881    4.8294974 
    8900    1.0021283   0.45313496    20.514489    22.470811    4.7964739 
    9000    1.0021517   0.45487918    20.513303    22.471404    4.7791516 
    9100    1.0016505   0.45242167    20.516173    22.471064    4.7721367 
    9200    1.0004294   0.45376078    20.515457    22.469856    4.7929498 
    9300    1.0006714   0.45294369    20.516143    22.470088    4.7967629 
    9400     1.000752   0.45349023    20.516286    22.470898    4.7799875 
    9500     1.002668   0.45314659    20.514092    22.471235    4.7945862 
    9600    1.0035924   0.45188071    20.516376     22.47364    4.8127918 
    9700    1.0027959   0.45344787    20.515591    22.473227    4.7913729 
    9800    1.0040962   0.45300417    20.516195    22.475337    4.7630356 
    9900     1.003909   0.45408586    20.513152    22.473095    4.7870658 
   10000    1.0010066   0.45571989    20.517792    22.475016    4.8207701 
Loop time of 281.255 on 2 procs for 10000 steps with 256000 atoms

Performance: 36863.325 tau/day, 35.555 timesteps/s
99.7% CPU use with 2 MPI tasks x 1 OpenMP threads

MPI task timing breakdown:
Section |  min time  |  avg time  |  max time  |%varavg| %total
---------------------------------------------------------------
Pair    | 80.378     | 81.131     | 81.885     |   8.4 | 28.85
Bond    | 14.32      | 14.552     | 14.785     |   6.1 |  5.17
Neigh   | 70.155     | 70.163     | 70.17      |   0.1 | 24.95
Comm    | 43.757     | 44.237     | 44.716     |   7.2 | 15.73
Output  | 0.025878   | 0.026489   | 0.027099   |   0.4 |  0.01
Modify  | 63.6       | 63.629     | 63.657     |   0.4 | 22.62
Other   |            | 7.517      |            |       |  2.67

Nlocal:         128000 ave      128010 max      127990 min
Histogram: 1 0 0 0 0 0 0 0 0 1
Nghost:        24493.5 ave       24574 max       24413 min
Histogram: 1 0 0 0 0 0 0 0 0 1
Neighs:         749466 ave      749476 max      749457 min
Histogram: 1 0 0 0 0 0 0 0 0 1

Total # of neighbors = 1498933
Ave neighs/atom = 5.855207
Ave special neighs/atom = 1.98
Neighbor list builds = 2577
Dangerous builds = 0
Total wall time: 0:04:41
Intel(R) VTune(TM) Profiler 2022.2.0 collection completed successfully. Use the "aps --report /home/ubuntu/lammps/bench/aps_result_20220703" command to generate textual and HTML reports for the profiling session.
