LAMMPS (7 Jan 2022)
  using 1 OpenMP thread(s) per MPI task
Reading data file ...
  orthogonal box = (0 0 0) to (40 20 37.2886)
  2 by 2 by 2 MPI processor grid
  reading atoms ...
  32000 atoms
  reading velocities ...
  32000 velocities
  read_data CPU = 0.111 seconds
Replicating atoms ...
  orthogonal box = (0 0 0) to (160 80 37.292229)
  4 by 2 by 1 MPI processor grid
  512000 atoms
  replicate CPU = 0.032 seconds
14592 atoms in group bottom
497408 atoms in group active
  generated 0 of 1 mixed pair_coeff terms from geometric mixing rule
Neighbor list info ...
  update every 1 steps, delay 0 steps, check yes
  max neighbors/atom: 2000, page size: 100000
  master list distance cutoff = 1.1
  ghost atom cutoff = 1.1
  binsize = 0.55, bins = 291 146 68
  1 neighbor lists, perpetual/occasional/extra = 1 0 0
  (1) pair gran/hooke/history, perpetual
      attributes: half, newton off, size, history
      pair build: half/size/bin/newtoff
      stencil: full/bin/3d
      bin: standard
Setting up Verlet run ...
  Unit style    : lj
  Current step  : 0
  Time step     : 0.0001
Per MPI rank memory allocation (min/avg/max) = 36.74 | 36.74 | 36.74 Mbytes
Step Atoms KinEng c_1 Volume 
       0   512000     12546226    25618.021    477340.53 
     100   512000     12548673    25137.549    477355.32 
     200   512000     12550763    25181.814    477379.69 
     300   512000     12553016    25287.588    477403.64 
     400   512000     12555331     25155.81     477426.4 
     500   512000     12557308    25024.766    477451.12 
     600   512000     12559542    25031.218    477475.72 
     700   512000     12562058    24839.354    477499.13 
     800   512000     12564644    24883.534    477521.34 
     900   512000     12567371    24734.109    477542.35 
    1000   512000     12569155    24637.876    477562.17 
    1100   512000     12571241    24540.829    477580.79 
    1200   512000     12573153    24734.936    477598.21 
    1300   512000     12574874    24798.965    477614.44 
    1400   512000     12576185    24845.117    477629.47 
    1500   512000     12577727    25058.358     477643.3 
    1600   512000     12579054    25173.339    477655.94 
    1700   512000     12580301    25484.708    477667.37 
    1800   512000     12581199    25696.549    477674.33 
    1900   512000     12582014    25829.192    477683.78 
    2000   512000     12582934    25901.776    477692.02 
    2100   512000     12583797    26187.375    477699.07 
    2200   512000     12584843    26251.955    477704.93 
    2300   512000     12585833    26226.261    477709.58 
    2400   512000     12587039     26137.42    477713.04 
    2500   512000     12588005    26111.956     477715.3 
    2600   512000     12588723    26239.739    477716.37 
    2700   512000     12589360    26388.475     477717.1 
    2800   512000     12589721    26430.544    477719.76 
    2900   512000     12590190     26473.96    477721.23 
    3000   512000     12590452    26496.043     477721.5 
    3100   512000     12590915    26638.491    477720.57 
    3200   512000     12591510    26793.736    477718.45 
    3300   512000     12592585    26771.645    477715.13 
    3400   512000     12593718    26712.296    477710.66 
    3500   512000     12594887    26635.351    477705.14 
    3600   512000     12596051    26554.108    477698.49 
    3700   512000     12596974    26538.163    477690.72 
    3800   512000     12597720    26580.446    477681.53 
    3900   512000     12598376    26623.014    477671.15 
    4000   512000     12599056    26613.805    477672.91 
    4100   512000     12599564    26561.748    477677.88 
    4200   512000     12599890    26549.305    477681.65 
    4300   512000     12600106    26535.982    477684.22 
    4400   512000     12600200    26555.394    477685.59 
    4500   512000     12600259    26640.989    477685.77 
    4600   512000     12600347    26747.978    477684.75 
    4700   512000     12600576    26840.988    477682.53 
    4800   512000     12600808    26937.344    477679.12 
    4900   512000     12601144     27042.93    477674.51 
    5000   512000     12601526    27150.117     477668.7 
    5100   512000     12601982     27271.11     477661.7 
    5200   512000     12602595    27377.863     477653.5 
    5300   512000     12603259    27476.923    477653.74 
    5400   512000     12603974    27634.603    477663.23 
    5500   512000     12604809    27690.946    477671.66 
    5600   512000     12605713    27668.494    477678.97 
    5700   512000     12606624    27594.412    477685.09 
    5800   512000     12607580    27594.313     477688.5 
    5900   512000     12608595    27482.901    477693.64 
    6000   512000     12609619    27426.712    477696.14 
    6100   512000     12610806    27378.645    477697.51 
    6200   512000     12611890    27360.602    477697.76 
    6300   512000     12612942    27317.286    477696.88 
    6400   512000     12614073     27276.13    477694.88 
    6500   512000     12615236    27242.303    477691.74 
    6600   512000     12616549    27157.991    477687.48 
    6700   512000     12618042    27006.086    477682.09 
    6800   512000     12619481    26887.068    477675.57 
    6900   512000     12620928    26789.163    477667.93 
    7000   512000     12622299    26673.213    477658.87 
    7100   512000     12623643    26620.536    477648.62 
    7200   512000     12624873    26575.333    477637.17 
    7300   512000     12626036    26504.812    477624.52 
    7400   512000     12627094    26479.328    477610.68 
    7500   512000     12628124     26494.54    477600.78 
    7600   512000     12629067    26471.198    477580.06 
    7700   512000     12629899     26500.08     477563.2 
    7800   512000     12630772    26492.309    477545.21 
    7900   512000     12631545    26520.623     477526.1 
    8000   512000     12632200    26551.185    477505.85 
    8100   512000     12632844    26624.675    477484.48 
    8200   512000     12633421    26639.157    477461.99 
    8300   512000     12633934    26670.226    477438.36 
    8400   512000     12634394    26658.116    477413.61 
    8500   512000     12634826    26712.416    477387.73 
    8600   512000     12635198    26765.259    477360.72 
    8700   512000     12635481    26823.125    477332.59 
    8800   512000     12635543    26874.545    477303.33 
    8900   512000     12635477    26941.999    477272.94 
    9000   512000     12635253    27060.185    477248.86 
    9100   512000     12634927    27179.271    477243.58 
    9200   512000     12634603    27252.608     477266.7 
    9300   512000     12634279    27330.946     477288.7 
    9400   512000     12633969    27396.862    477309.57 
    9500   512000     12633592    27450.957    477329.31 
    9600   512000     12633267    27427.785    477347.92 
    9700   512000     12632890    27486.242     477365.4 
    9800   512000     12632529    27546.244    477381.76 
    9900   512000     12632197    27557.311    477396.99 
   10000   512000     12631851    27574.937    477411.09 
Loop time of 69.6891 on 8 procs for 10000 steps with 512000 atoms

Performance: 1239.792 tau/day, 143.494 timesteps/s
99.9% CPU use with 8 MPI tasks x 1 OpenMP threads

MPI task timing breakdown:
Section |  min time  |  avg time  |  max time  |%varavg| %total
---------------------------------------------------------------
Pair    | 36.678     | 36.943     | 37.374     |   3.6 | 53.01
Neigh   | 10.022     | 10.105     | 10.212     |   2.1 | 14.50
Comm    | 3.2254     | 3.3532     | 3.4642     |   4.9 |  4.81
Output  | 0.036458   | 0.043891   | 0.049832   |   1.8 |  0.06
Modify  | 13.469     | 13.983     | 14.677     |   9.5 | 20.07
Other   |            | 5.261      |            |       |  7.55

Nlocal:          64000 ave       64013 max       63984 min
Histogram: 1 0 0 1 1 2 1 0 1 1
Nghost:        7245.25 ave        7260 max        7225 min
Histogram: 1 0 1 1 0 1 0 2 1 1
Neighs:         227557 ave      227719 max      227346 min
Histogram: 1 0 0 0 2 2 1 0 1 1

Total # of neighbors = 1820455
Ave neighs/atom = 3.5555762
Neighbor list builds = 297
Dangerous builds = 0
Total wall time: 0:01:09
Intel(R) VTune(TM) Profiler 2022.2.0 collection completed successfully. Use the "aps --report /home/ubuntu/lammps/bench/aps_result_20220703" command to generate textual and HTML reports for the profiling session.
