LAMMPS (7 Jan 2022)
  using 1 OpenMP thread(s) per MPI task
Reading data file ...
  orthogonal box = (-16.796 -16.796 -16.796) to (16.796 16.796 16.796)
  2 by 2 by 2 MPI processor grid
  reading atoms ...
  32000 atoms
  reading velocities ...
  32000 velocities
  scanning bonds ...
  1 = max bonds/atom
  reading bonds ...
  31680 bonds
Finding 1-2 1-3 1-4 neighbors ...
  special bond factors lj:    0        1        1       
  special bond factors coul:  0        1        1       
     2 = max # of 1-2 neighbors
     2 = max # of special neighbors
  special bonds CPU = 0.029 seconds
  read_data CPU = 1.244 seconds
----------------------------------------------------------
Using INTEL Package without Coprocessor.
Compiler: Intel Classic C++ 20.21.5 / Intel(R) C++ g++ 9.3 mode
SIMD compiler directives: Enabled
Precision: single
----------------------------------------------------------
  generated 0 of 0 mixed pair_coeff terms from geometric mixing rule
Neighbor list info ...
  update every 1 steps, delay 1 steps, check yes
  max neighbors/atom: 2000, page size: 100000
  master list distance cutoff = 1.52
  ghost atom cutoff = 1.52
  binsize = 0.76, bins = 45 45 45
  1 neighbor lists, perpetual/occasional/extra = 1 0 0
  (1) pair lj/cut/intel, perpetual
      attributes: half, newton on, intel
      pair build: half/bin/newton/intel
      stencil: half/bin/3d
      bin: intel
Setting up Verlet run ...
  Unit style    : lj
  Current step  : 0
  Time step     : 0.012
WARNING: Communication cutoff 1.52 is shorter than a bond length based estimate of 1.855. This may lead to errors. (../comm.cpp:723)
Per MPI rank memory allocation (min/avg/max) = 38.17 | 38.36 | 38.46 Mbytes
Step Temp E_pair E_mol TotEng Press 
       0   0.97029772   0.44484079    20.494522    22.394764    4.6721832 
     100   0.97414212   0.44131767    20.503692    22.406177    4.6524125 
Loop time of 1.17275 on 8 procs for 100 steps with 32000 atoms

Performance: 88407.952 tau/day, 85.270 timesteps/s
74.2% CPU use with 8 MPI tasks x 1 OpenMP threads

MPI task timing breakdown:
Section |  min time  |  avg time  |  max time  |%varavg| %total
---------------------------------------------------------------
Pair    | 0.025984   | 0.031742   | 0.056078   |   5.8 |  2.71
Bond    | 0.0035779  | 0.0038318  | 0.0039682  |   0.2 |  0.33
Neigh   | 0.14485    | 0.1644     | 0.18417    |   4.8 | 14.02
Comm    | 0.41011    | 0.53482    | 0.74193    |  15.1 | 45.60
Output  | 2.3005e-05 | 2.5537e-05 | 3.1847e-05 |   0.0 |  0.00
Modify  | 0.020665   | 0.026409   | 0.051168   |   6.4 |  2.25
Other   |            | 0.4115     |            |       | 35.09

Nlocal:           4000 ave        4024 max        3974 min
Histogram: 1 0 0 1 2 2 0 1 0 1
Nghost:        2584.75 ave        2626 max        2546 min
Histogram: 1 1 0 1 1 1 2 0 0 1
Neighs:        23448.8 ave       23751 max       23138 min
Histogram: 1 0 0 0 3 2 1 0 0 1

Total # of neighbors = 187590
Ave neighs/atom = 5.8621875
Ave special neighs/atom = 1.98
Neighbor list builds = 25
Dangerous builds = 0
Total wall time: 0:00:02
Intel(R) VTune(TM) Profiler 2022.2.0 collection completed successfully. Use the "aps --report /home/ubuntu/lammps/bench/aps_result_20220531" command to generate textual and HTML reports for the profiling session.
