LAMMPS (7 Jan 2022)
  using 1 OpenMP thread(s) per MPI task
Reading data file ...
  orthogonal box = (-16.796 -16.796 -16.796) to (16.796 16.796 16.796)
  1 by 1 by 2 MPI processor grid
  reading atoms ...
  32000 atoms
  reading velocities ...
  32000 velocities
  scanning bonds ...
  1 = max bonds/atom
  reading bonds ...
  31680 bonds
Finding 1-2 1-3 1-4 neighbors ...
  special bond factors lj:    0        1        1       
  special bond factors coul:  0        1        1       
     2 = max # of 1-2 neighbors
     2 = max # of special neighbors
  special bonds CPU = 0.003 seconds
  read_data CPU = 0.118 seconds
----------------------------------------------------------
Using INTEL Package without Coprocessor.
Compiler: Intel Classic C++ 20.21.5 / Intel(R) C++ g++ 9.3 mode
SIMD compiler directives: Enabled
Precision: double
----------------------------------------------------------
  generated 0 of 0 mixed pair_coeff terms from geometric mixing rule
Neighbor list info ...
  update every 1 steps, delay 1 steps, check yes
  max neighbors/atom: 2000, page size: 100000
  master list distance cutoff = 1.52
  ghost atom cutoff = 1.52
  binsize = 0.76, bins = 45 45 45
  1 neighbor lists, perpetual/occasional/extra = 1 0 0
  (1) pair lj/cut/intel, perpetual
      attributes: half, newton on, intel
      pair build: half/bin/newton/intel
      stencil: half/bin/3d
      bin: intel
Setting up Verlet run ...
  Unit style    : lj
  Current step  : 0
  Time step     : 0.012
WARNING: Communication cutoff 1.52 is shorter than a bond length based estimate of 1.855. This may lead to errors. (../comm.cpp:723)
Per MPI rank memory allocation (min/avg/max) = 144.8 | 145 | 145.1 Mbytes
Step Temp E_pair E_mol TotEng Press 
       0   0.97029772   0.44484087    20.494523    22.394765    4.6721833 
     100   0.97301087   0.44481334    20.503573    22.407857    4.7088337 
Loop time of 0.41424 on 2 procs for 100 steps with 32000 atoms

Performance: 250289.492 tau/day, 241.406 timesteps/s
99.4% CPU use with 2 MPI tasks x 1 OpenMP threads

MPI task timing breakdown:
Section |  min time  |  avg time  |  max time  |%varavg| %total
---------------------------------------------------------------
Pair    | 0.090022   | 0.090544   | 0.091066   |   0.2 | 21.86
Bond    | 0.02513    | 0.025446   | 0.025763   |   0.2 |  6.14
Neigh   | 0.11371    | 0.11375    | 0.11378    |   0.0 | 27.46
Comm    | 0.062555   | 0.063359   | 0.064162   |   0.3 | 15.30
Output  | 6.9978e-05 | 7.8007e-05 | 8.6035e-05 |   0.0 |  0.02
Modify  | 0.10412    | 0.10422    | 0.10433    |   0.0 | 25.16
Other   |            | 0.01684    |            |       |  4.07

Nlocal:          16000 ave       16029 max       15971 min
Histogram: 1 0 0 0 0 0 0 0 0 1
Nghost:         6482.5 ave        6529 max        6436 min
Histogram: 1 0 0 0 0 0 0 0 0 1
Neighs:        93647.5 ave       93889 max       93406 min
Histogram: 1 0 0 0 0 0 0 0 0 1

Total # of neighbors = 187295
Ave neighs/atom = 5.8529687
Ave special neighs/atom = 1.98
Neighbor list builds = 25
Dangerous builds = 0
Total wall time: 0:00:00
Intel(R) VTune(TM) Profiler 2022.2.0 collection completed successfully. Use the "aps --report /home/ubuntu/lammps/bench/aps_result_20220601" command to generate textual and HTML reports for the profiling session.
