LAMMPS (7 Jan 2022)
  using 1 OpenMP thread(s) per MPI task
Reading data file ...
  orthogonal box = (0 0 0) to (40 20 37.2886)
  2 by 1 by 1 MPI processor grid
  reading atoms ...
  32000 atoms
  reading velocities ...
  32000 velocities
  read_data CPU = 0.132 seconds
Replicating atoms ...
  orthogonal box = (0 0 0) to (160 80 37.292229)
  2 by 1 by 1 MPI processor grid
  512000 atoms
  replicate CPU = 0.050 seconds
14592 atoms in group bottom
497408 atoms in group active
  generated 0 of 1 mixed pair_coeff terms from geometric mixing rule
Neighbor list info ...
  update every 1 steps, delay 0 steps, check yes
  max neighbors/atom: 2000, page size: 100000
  master list distance cutoff = 1.1
  ghost atom cutoff = 1.1
  binsize = 0.55, bins = 291 146 68
  1 neighbor lists, perpetual/occasional/extra = 1 0 0
  (1) pair gran/hooke/history, perpetual
      attributes: half, newton off, size, history
      pair build: half/size/bin/newtoff
      stencil: full/bin/3d
      bin: standard
Setting up Verlet run ...
  Unit style    : lj
  Current step  : 0
  Time step     : 0.0001
Per MPI rank memory allocation (min/avg/max) = 119.6 | 119.6 | 119.6 Mbytes
Step Atoms KinEng c_1 Volume 
       0   512000     12546226    25618.021    477340.53 
     100   512000     12548673    25137.549    477355.32 
     200   512000     12550763    25181.814    477379.69 
     300   512000     12553016    25287.588    477403.64 
     400   512000     12555331     25155.81     477426.4 
     500   512000     12557308    25024.766    477451.12 
     600   512000     12559542    25031.218    477475.72 
     700   512000     12562058    24839.354    477499.13 
     800   512000     12564644    24883.534    477521.34 
     900   512000     12567371    24734.109    477542.35 
    1000   512000     12569155    24637.876    477562.17 
    1100   512000     12571241    24540.829    477580.79 
    1200   512000     12573153    24734.936    477598.21 
    1300   512000     12574874    24798.965    477614.44 
    1400   512000     12576185    24845.117    477629.47 
    1500   512000     12577727    25058.358     477643.3 
    1600   512000     12579054    25173.339    477655.94 
    1700   512000     12580301    25484.708    477667.37 
    1800   512000     12581199    25696.549    477674.33 
    1900   512000     12582014    25829.192    477683.78 
    2000   512000     12582934    25901.782    477692.02 
    2100   512000     12583797    26187.377    477699.07 
    2200   512000     12584843    26251.951    477704.93 
    2300   512000     12585833    26226.294    477709.58 
    2400   512000     12587039    26137.367    477713.04 
    2500   512000     12588006    26111.994     477715.3 
    2600   512000     12588723     26239.34    477716.37 
    2700   512000     12589358    26388.657     477717.1 
    2800   512000     12589721    26430.756    477719.76 
    2900   512000     12590188    26476.788    477721.23 
    3000   512000     12590455    26492.908     477721.5 
    3100   512000     12590917    26632.687    477720.57 
    3200   512000     12591500    26793.425    477718.45 
    3300   512000     12592564    26781.765    477715.13 
    3400   512000     12593694      26703.5    477710.66 
    3500   512000     12594875    26619.709    477705.14 
    3600   512000     12595980    26590.579    477698.49 
    3700   512000     12596931    26548.436    477690.72 
    3800   512000     12597693    26575.815    477681.53 
    3900   512000     12598320    26670.549    477671.15 
    4000   512000     12599026    26632.311    477672.64 
    4100   512000     12599538    26577.633     477677.9 
    4200   512000     12599857    26567.472    477681.96 
    4300   512000     12600136    26528.039    477684.82 
    4400   512000     12600277    26567.665    477686.48 
    4500   512000     12600441    26639.988    477686.95 
    4600   512000     12600600    26751.749    477686.22 
    4700   512000     12600862    26781.685     477684.3 
    4800   512000     12601086    26869.131    477681.17 
    4900   512000     12601409    26995.802    477676.85 
    5000   512000     12601745      27147.8    477671.34 
    5100   512000     12602219    27243.194    477665.13 
    5200   512000     12602748    27339.737    477657.87 
    5300   512000     12603394    27463.237    477649.42 
    5400   512000     12604100    27598.205    477639.96 
    5500   512000     12604941    27664.323    477629.36 
    5600   512000     12605885    27685.671    477622.08 
    5700   512000     12606938    27624.987    477623.35 
    5800   512000     12608017    27563.119    477623.49 
    5900   512000     12609019    27489.166     477622.5 
    6000   512000     12610104    27458.659    477620.38 
    6100   512000     12611193    27440.262    477617.14 
    6200   512000     12612291    27399.109    477612.77 
    6300   512000     12613410    27395.008    477607.27 
    6400   512000     12614606    27295.295    477602.66 
    6500   512000     12615890    27203.505    477598.55 
    6600   512000     12617248     27099.41    477593.31 
    6700   512000     12618706    26987.459    477586.94 
    6800   512000     12620136    26910.138    477579.45 
    6900   512000     12621636     26833.64    477570.74 
    7000   512000     12623086    26714.658    477560.66 
    7100   512000     12624432    26620.168    477549.39 
    7200   512000     12625758    26574.104    477536.92 
    7300   512000     12626963    26516.525    477523.54 
    7400   512000     12628128    26469.372    477509.15 
    7500   512000     12629285    26454.451    477493.64 
    7600   512000     12630314     26452.23       477477 
    7700   512000     12631275    26452.035    477459.24 
    7800   512000     12632152    26434.097    477445.78 
    7900   512000     12632990    26439.304    477433.88 
    8000   512000     12633741    26495.526    477420.85 
    8100   512000     12634429    26533.164    477406.69 
    8200   512000     12635073    26585.889     477391.4 
    8300   512000     12635721    26552.152    477374.99 
    8400   512000     12636194    26622.843    477357.44 
    8500   512000     12636577     26669.74    477338.77 
    8600   512000     12636872    26742.325    477318.97 
    8700   512000     12637059    26793.475    477298.05 
    8800   512000     12637113    26871.896       477276 
    8900   512000     12636907    26956.767    477252.82 
    9000   512000     12636626    27091.839    477228.51 
    9100   512000     12636345    27203.375    477219.25 
    9200   512000     12635964    27240.682    477232.47 
    9300   512000     12635500    27319.035    477255.66 
    9400   512000     12634934    27427.086    477277.72 
    9500   512000     12634379    27504.229    477305.38 
    9600   512000     12633872    27545.632    477324.81 
    9700   512000     12633364    27627.993    477343.12 
    9800   512000     12632873    27699.744    477360.29 
    9900   512000     12632445    27754.391    477376.34 
   10000   512000     12631989    27759.823    477391.26 
Loop time of 270.006 on 2 procs for 10000 steps with 512000 atoms

Performance: 319.993 tau/day, 37.036 timesteps/s
99.9% CPU use with 2 MPI tasks x 1 OpenMP threads

MPI task timing breakdown:
Section |  min time  |  avg time  |  max time  |%varavg| %total
---------------------------------------------------------------
Pair    | 153.64     | 153.98     | 154.32     |   2.8 | 57.03
Neigh   | 39.682     | 39.69      | 39.698     |   0.1 | 14.70
Comm    | 6.1895     | 6.2153     | 6.241      |   1.0 |  2.30
Output  | 0.11372    | 0.12026    | 0.1268     |   1.9 |  0.04
Modify  | 54.037     | 54.178     | 54.318     |   1.9 | 20.07
Other   |            | 15.82      |            |       |  5.86

Nlocal:         256000 ave      256006 max      255994 min
Histogram: 1 0 0 0 0 0 0 0 0 1
Nghost:        14294.5 ave       14295 max       14294 min
Histogram: 1 0 0 0 0 0 0 0 0 1
Neighs:         898827 ave      899091 max      898563 min
Histogram: 1 0 0 0 0 0 0 0 0 1

Total # of neighbors = 1797654
Ave neighs/atom = 3.511043
Neighbor list builds = 298
Dangerous builds = 0
Total wall time: 0:04:30
Intel(R) VTune(TM) Profiler 2022.2.0 collection completed successfully. Use the "aps --report /home/ubuntu/lammps/bench/aps_result_20220703" command to generate textual and HTML reports for the profiling session.
