LAMMPS (7 Jan 2022)
  using 1 OpenMP thread(s) per MPI task
Reading data file ...
  orthogonal box = (-16.796 -16.796 -16.796) to (16.796 16.796 16.796)
  1 by 2 by 2 MPI processor grid
  reading atoms ...
  32000 atoms
  reading velocities ...
  32000 velocities
  scanning bonds ...
  1 = max bonds/atom
  reading bonds ...
  31680 bonds
Finding 1-2 1-3 1-4 neighbors ...
  special bond factors lj:    0        1        1       
  special bond factors coul:  0        1        1       
     2 = max # of 1-2 neighbors
     2 = max # of special neighbors
  special bonds CPU = 0.002 seconds
  read_data CPU = 0.196 seconds
Replicating atoms ...
  orthogonal box = (-16.796 -16.796 -16.796) to (117.572 117.572 117.572)
  1 by 2 by 2 MPI processor grid
  2048000 atoms
  2027520 bonds
Finding 1-2 1-3 1-4 neighbors ...
  special bond factors lj:    0        1        1       
  special bond factors coul:  0        1        1       
     2 = max # of 1-2 neighbors
     2 = max # of special neighbors
  special bonds CPU = 0.165 seconds
  replicate CPU = 0.330 seconds
----------------------------------------------------------
Using INTEL Package without Coprocessor.
Compiler: Intel Classic C++ 20.21.5 / Intel(R) C++ g++ 9.3 mode
SIMD compiler directives: Enabled
Precision: mixed
----------------------------------------------------------
  generated 0 of 0 mixed pair_coeff terms from geometric mixing rule
Neighbor list info ...
  update every 1 steps, delay 1 steps, check yes
  max neighbors/atom: 2000, page size: 100000
  master list distance cutoff = 1.52
  ghost atom cutoff = 1.52
  binsize = 0.76, bins = 177 177 177
  1 neighbor lists, perpetual/occasional/extra = 1 0 0
  (1) pair lj/cut/intel, perpetual
      attributes: half, newton on, intel
      pair build: half/bin/newton/intel
      stencil: half/bin/3d
      bin: intel
Setting up Verlet run ...
  Unit style    : lj
  Current step  : 0
  Time step     : 0.012
WARNING: Communication cutoff 1.52 is shorter than a bond length based estimate of 1.855. This may lead to errors. (../comm.cpp:723)
Per MPI rank memory allocation (min/avg/max) = 4501 | 4501 | 4501 Mbytes
Step Temp E_pair E_mol TotEng Press 
       0   0.97026787     0.444841    20.494523    22.394765    4.6721831 
     100   0.97375133   0.44103074    20.502058    22.403715    4.6849973 
Loop time of 26.5732 on 4 procs for 100 steps with 2048000 atoms

Performance: 3901.673 tau/day, 3.763 timesteps/s
80.0% CPU use with 4 MPI tasks x 1 OpenMP threads

MPI task timing breakdown:
Section |  min time  |  avg time  |  max time  |%varavg| %total
---------------------------------------------------------------
Pair    | 3.5708     | 4.4874     | 7.1871     |  73.6 | 16.89
Bond    | 0.70546    | 0.89851    | 1.4366     |  32.8 |  3.38
Neigh   | 6.2803     | 6.4866     | 6.5795     |   4.8 | 24.41
Comm    | 5.5058     | 8.7891     | 9.9703     |  64.0 | 33.08
Output  | 0.0013172  | 0.013271   | 0.017337   |   6.0 |  0.05
Modify  | 2.703      | 3.4133     | 5.3796     |  61.5 | 12.84
Other   |            | 2.485      |            |       |  9.35

Nlocal:         512000 ave      512024 max      511963 min
Histogram: 1 0 0 0 0 0 1 0 1 1
Nghost:        59981.8 ave       60110 max       59852 min
Histogram: 1 0 0 1 0 0 1 0 0 1
Neighs:    2.99958e+06 ave 3.00123e+06 max 2.99854e+06 min
Histogram: 2 0 0 0 0 1 0 0 0 1

Total # of neighbors = 11998329
Ave neighs/atom = 5.8585591
Ave special neighs/atom = 1.98
Neighbor list builds = 27
Dangerous builds = 0
Total wall time: 0:00:27
Intel(R) VTune(TM) Profiler 2022.2.0 collection completed successfully. Use the "aps --report /home/ubuntu/lammps/bench/aps_result_20220526" command to generate textual and HTML reports for the profiling session.
