LAMMPS (7 Jan 2022)
  using 1 OpenMP thread(s) per MPI task
Reading data file ...
  orthogonal box = (-16.796 -16.796 -16.796) to (16.796 16.796 16.796)
  2 by 2 by 4 MPI processor grid
  reading atoms ...
  32000 atoms
  reading velocities ...
  32000 velocities
  scanning bonds ...
  1 = max bonds/atom
  reading bonds ...
  31680 bonds
Finding 1-2 1-3 1-4 neighbors ...
  special bond factors lj:    0        1        1       
  special bond factors coul:  0        1        1       
     2 = max # of 1-2 neighbors
     2 = max # of special neighbors
  special bonds CPU = 0.002 seconds
  read_data CPU = 0.193 seconds
Replicating atoms ...
  orthogonal box = (-16.796 -16.796 -16.796) to (117.572 117.572 117.572)
  2 by 2 by 4 MPI processor grid
  2048000 atoms
  2027520 bonds
Finding 1-2 1-3 1-4 neighbors ...
  special bond factors lj:    0        1        1       
  special bond factors coul:  0        1        1       
     2 = max # of 1-2 neighbors
     2 = max # of special neighbors
  special bonds CPU = 0.099 seconds
  replicate CPU = 0.362 seconds
----------------------------------------------------------
Using INTEL Package without Coprocessor.
Compiler: Intel Classic C++ 20.21.5 / Intel(R) C++ g++ 9.3 mode
SIMD compiler directives: Enabled
Precision: double
----------------------------------------------------------
  generated 0 of 0 mixed pair_coeff terms from geometric mixing rule
Neighbor list info ...
  update every 1 steps, delay 1 steps, check yes
  max neighbors/atom: 2000, page size: 100000
  master list distance cutoff = 1.52
  ghost atom cutoff = 1.52
  binsize = 0.76, bins = 177 177 177
  1 neighbor lists, perpetual/occasional/extra = 1 0 0
  (1) pair lj/cut/intel, perpetual
      attributes: half, newton on, intel
      pair build: half/bin/newton/intel
      stencil: half/bin/3d
      bin: intel
Setting up Verlet run ...
  Unit style    : lj
  Current step  : 0
  Time step     : 0.012
WARNING: Communication cutoff 1.52 is shorter than a bond length based estimate of 1.855. This may lead to errors. (../comm.cpp:723)
Per MPI rank memory allocation (min/avg/max) = 1134 | 1134 | 1134 Mbytes
Step Temp E_pair E_mol TotEng Press 
       0   0.97026787   0.44484087    20.494523    22.394765    4.6721833 
     100   0.97250259   0.44187322    20.502387    22.403014    4.6895664 
Loop time of 7.61445 on 16 procs for 100 steps with 2048000 atoms

Performance: 13616.223 tau/day, 13.133 timesteps/s
85.5% CPU use with 16 MPI tasks x 1 OpenMP threads

MPI task timing breakdown:
Section |  min time  |  avg time  |  max time  |%varavg| %total
---------------------------------------------------------------
Pair    | 0.65435    | 0.75771    | 1.4049     |  24.7 |  9.95
Bond    | 0.1974     | 0.23324    | 0.48242    |  16.6 |  3.06
Neigh   | 1.5708     | 1.6032     | 1.6584     |   1.3 | 21.06
Comm    | 1.8096     | 2.655      | 3.0875     |  32.5 | 34.87
Output  | 0.0044279  | 0.023359   | 0.03624    |   5.5 |  0.31
Modify  | 0.69348    | 0.76924    | 1.1841     |  13.7 | 10.10
Other   |            | 1.573      |            |       | 20.65

Nlocal:         128000 ave      128056 max      127935 min
Histogram: 2 1 1 1 1 2 3 2 1 2
Nghost:        24497.6 ave       24619 max       24404 min
Histogram: 1 2 1 4 1 4 1 1 0 1
Neighs:         749684 ave      750383 max      749089 min
Histogram: 3 1 2 0 1 3 2 1 2 1

Total # of neighbors = 11994950
Ave neighs/atom = 5.8569092
Ave special neighs/atom = 1.98
Neighbor list builds = 26
Dangerous builds = 0
Total wall time: 0:00:08
Intel(R) VTune(TM) Profiler 2022.2.0 collection completed successfully. Use the "aps --report /home/ubuntu/lammps/bench/aps_result_20220531" command to generate textual and HTML reports for the profiling session.
