LAMMPS (7 Jan 2022)
  using 1 OpenMP thread(s) per MPI task
Reading data file ...
  orthogonal box = (0 0 0) to (40 20 37.2886)
  4 by 2 by 2 MPI processor grid
  reading atoms ...
  32000 atoms
  reading velocities ...
  32000 velocities
  read_data CPU = 0.102 seconds
Replicating atoms ...
  orthogonal box = (0 0 0) to (160 80 37.292229)
  4 by 4 by 1 MPI processor grid
  512000 atoms
  replicate CPU = 0.032 seconds
14592 atoms in group bottom
497408 atoms in group active
  generated 0 of 1 mixed pair_coeff terms from geometric mixing rule
Neighbor list info ...
  update every 1 steps, delay 0 steps, check yes
  max neighbors/atom: 2000, page size: 100000
  master list distance cutoff = 1.1
  ghost atom cutoff = 1.1
  binsize = 0.55, bins = 291 146 68
  1 neighbor lists, perpetual/occasional/extra = 1 0 0
  (1) pair gran/hooke/history, perpetual
      attributes: half, newton off, size, history
      pair build: half/size/bin/newtoff
      stencil: full/bin/3d
      bin: standard
Setting up Verlet run ...
  Unit style    : lj
  Current step  : 0
  Time step     : 0.0001
Per MPI rank memory allocation (min/avg/max) = 23.78 | 23.78 | 23.78 Mbytes
Step Atoms KinEng c_1 Volume 
       0   512000     12546226    25618.021    477340.53 
     100   512000     12548673    25137.549    477355.32 
     200   512000     12550763    25181.814    477379.69 
     300   512000     12553016    25287.588    477403.64 
     400   512000     12555331     25155.81     477426.4 
     500   512000     12557308    25024.766    477451.12 
     600   512000     12559542    25031.218    477475.72 
     700   512000     12562058    24839.354    477499.13 
     800   512000     12564644    24883.534    477521.34 
     900   512000     12567371    24734.109    477542.35 
    1000   512000     12569155    24637.876    477562.17 
    1100   512000     12571241    24540.829    477580.79 
    1200   512000     12573153    24734.936    477598.21 
    1300   512000     12574874    24798.965    477614.44 
    1400   512000     12576185    24845.117    477629.47 
    1500   512000     12577727    25058.358     477643.3 
    1600   512000     12579054    25173.339    477655.94 
    1700   512000     12580301    25484.708    477667.37 
    1800   512000     12581199    25696.549    477674.33 
    1900   512000     12582014    25829.192    477683.78 
    2000   512000     12582934    25901.775    477692.02 
    2100   512000     12583797    26187.371    477699.07 
    2200   512000     12584843    26251.958    477704.93 
    2300   512000     12585833    26226.233    477709.58 
    2400   512000     12587039      26137.4    477713.04 
    2500   512000     12588005    26111.887     477715.3 
    2600   512000     12588723    26239.585    477716.37 
    2700   512000     12589361    26388.142     477717.1 
    2800   512000     12589721    26430.016    477719.76 
    2900   512000     12590190    26473.591    477721.23 
    3000   512000     12590451    26495.214     477721.5 
    3100   512000     12590913    26638.192    477720.57 
    3200   512000     12591508    26790.827    477718.45 
    3300   512000     12592580    26776.943    477715.13 
    3400   512000     12593721    26715.118    477710.66 
    3500   512000     12594902    26648.949    477705.14 
    3600   512000     12596093    26558.992    477698.49 
    3700   512000     12597033    26512.317    477690.72 
    3800   512000     12597798    26565.517    477681.53 
    3900   512000     12598506    26598.498    477671.15 
    4000   512000     12599154    26593.308    477672.92 
    4100   512000     12599687    26580.057    477677.88 
    4200   512000     12600039     26536.67    477681.65 
    4300   512000     12600266    26526.486    477684.22 
    4400   512000     12600434    26551.887    477685.59 
    4500   512000     12600526    26623.704    477685.77 
    4600   512000     12600714    26758.734    477684.75 
    4700   512000     12600992    26838.613       477683 
    4800   512000     12601295    26897.798    477680.61 
    4900   512000     12601679     26984.01    477677.02 
    5000   512000     12602159    27090.475    477672.24 
    5100   512000     12602712    27171.283    477666.26 
    5200   512000     12603301    27286.532    477659.08 
    5300   512000     12603967    27420.108    477650.71 
    5400   512000     12604752    27496.706    477641.33 
    5500   512000     12605720    27562.054    477632.84 
    5600   512000     12606756    27507.268    477636.45 
    5700   512000     12607740    27473.571    477638.94 
    5800   512000     12608781     27420.26     477640.3 
    5900   512000     12609781    27393.297    477640.53 
    6000   512000     12610836    27352.844    477639.64 
    6100   512000     12611924    27330.939    477637.62 
    6200   512000     12612944    27311.285    477634.47 
    6300   512000     12614020    27276.231     477630.2 
    6400   512000     12615151    27242.668     477624.8 
    6500   512000     12616396    27170.731    477618.26 
    6600   512000     12617674    27125.693    477610.61 
    6700   512000     12619074    26982.846    477601.82 
    6800   512000     12620494    26898.019    477591.91 
    6900   512000     12621975    26787.626    477580.87 
    7000   512000     12623378    26689.032     477568.7 
    7100   512000     12624695    26616.554    477555.12 
    7200   512000     12625998    26577.806    477540.22 
    7300   512000     12627218    26529.754    477524.12 
    7400   512000     12628349    26496.002       477507 
    7500   512000     12629439    26441.016    477490.04 
    7600   512000     12630469    26424.693    477475.65 
    7700   512000     12631362    26379.314    477460.07 
    7800   512000     12632144    26383.267    477443.29 
    7900   512000     12632773    26453.724    477429.84 
    8000   512000     12633412    26491.534    477418.14 
    8100   512000     12634016    26531.069     477405.3 
    8200   512000     12634554    26569.682    477391.34 
    8300   512000     12634988    26613.165    477376.25 
    8400   512000     12635365    26666.004    477368.01 
    8500   512000     12635643    26713.485    477377.26 
    8600   512000     12635785    26796.979    477385.39 
    8700   512000     12635836     26885.71    477392.38 
    8800   512000     12635789    27002.531    477398.25 
    8900   512000     12635633    27089.511       477403 
    9000   512000     12635439    27134.433    477406.61 
    9100   512000     12635140    27198.961     477409.1 
    9200   512000     12634728    27270.945    477410.46 
    9300   512000     12634203    27342.625    477410.69 
    9400   512000     12633612    27414.351     477409.8 
    9500   512000     12632976    27526.272    477407.77 
    9600   512000     12632386    27628.816    477404.62 
    9700   512000     12631801    27708.175    477400.34 
    9800   512000     12631307    27733.432    477394.94 
    9900   512000     12630854    27773.293     477388.4 
   10000   512000     12630456    27784.604    477392.13 
Loop time of 36.855 on 16 procs for 10000 steps with 512000 atoms

Performance: 2344.322 tau/day, 271.334 timesteps/s
99.8% CPU use with 16 MPI tasks x 1 OpenMP threads

MPI task timing breakdown:
Section |  min time  |  avg time  |  max time  |%varavg| %total
---------------------------------------------------------------
Pair    | 18.781     | 19.03      | 19.189     |   2.8 | 51.63
Neigh   | 5.1151     | 5.161      | 5.2392     |   1.3 | 14.00
Comm    | 2.4188     | 2.4781     | 2.5378     |   2.9 |  6.72
Output  | 0.022535   | 0.025719   | 0.028486   |   1.2 |  0.07
Modify  | 6.8805     | 7.1739     | 7.4273     |   6.2 | 19.47
Other   |            | 2.987      |            |       |  8.10

Nlocal:          32000 ave       32013 max       31982 min
Histogram: 2 0 2 0 1 2 2 4 1 2
Nghost:        5493.62 ave        5509 max        5473 min
Histogram: 1 1 1 1 3 2 0 3 1 3
Neighs:         115198 ave      115426 max      115053 min
Histogram: 1 2 5 1 2 3 0 1 0 1

Total # of neighbors = 1843172
Ave neighs/atom = 3.5999453
Neighbor list builds = 298
Dangerous builds = 0
Total wall time: 0:00:37
Intel(R) VTune(TM) Profiler 2022.2.0 collection completed successfully. Use the "aps --report /home/ubuntu/lammps/bench/aps_result_20220703" command to generate textual and HTML reports for the profiling session.
