LAMMPS (7 Jan 2022)
  using 1 OpenMP thread(s) per MPI task
New timer settings: style=full  mode=nosync  timeout=off
Reading data file ...
  orthogonal box = (-16.796 -16.796 -16.796) to (16.796 16.796 16.796)
  2 by 2 by 2 MPI processor grid
  reading atoms ...
  32000 atoms
  reading velocities ...
  32000 velocities
  scanning bonds ...
  1 = max bonds/atom
  reading bonds ...
  31680 bonds
Finding 1-2 1-3 1-4 neighbors ...
  special bond factors lj:    0        1        1       
  special bond factors coul:  0        1        1       
     2 = max # of 1-2 neighbors
     2 = max # of special neighbors
  special bonds CPU = 0.003 seconds
  read_data CPU = 0.116 seconds
Replicating atoms ...
  orthogonal box = (-16.796 -16.796 -16.796) to (50.388 50.388 50.388)
  2 by 2 by 2 MPI processor grid
  256000 atoms
  253440 bonds
Finding 1-2 1-3 1-4 neighbors ...
  special bond factors lj:    0        1        1       
  special bond factors coul:  0        1        1       
     2 = max # of 1-2 neighbors
     2 = max # of special neighbors
  special bonds CPU = 0.008 seconds
  replicate CPU = 0.023 seconds
----------------------------------------------------------
Using INTEL Package without Coprocessor.
Compiler: Intel Classic C++ 20.21.5 / Intel(R) C++ g++ 9.3 mode
SIMD compiler directives: Enabled
Precision: mixed
----------------------------------------------------------
  generated 0 of 0 mixed pair_coeff terms from geometric mixing rule
Neighbor list info ...
  update every 1 steps, delay 1 steps, check yes
  max neighbors/atom: 2000, page size: 100000
  master list distance cutoff = 1.52
  ghost atom cutoff = 1.52
  binsize = 0.76, bins = 89 89 89
  1 neighbor lists, perpetual/occasional/extra = 1 0 0
  (1) pair lj/cut/intel, perpetual
      attributes: half, newton on, intel
      pair build: half/bin/newton/intel
      stencil: half/bin/3d
      bin: intel
Setting up Verlet run ...
  Unit style    : lj
  Current step  : 0
  Time step     : 0.012
WARNING: Communication cutoff 1.52 is shorter than a bond length based estimate of 1.855. This may lead to errors. (../comm.cpp:723)
Per MPI rank memory allocation (min/avg/max) = 285.7 | 285.7 | 285.7 Mbytes
Step Temp E_pair E_mol TotEng Press 
       0   0.97027119   0.44484088    20.494523    22.394765    4.6721834 
     100   0.97392885   0.44177693     20.50213    22.404795    4.6718363 
Loop time of 1.03128 on 8 procs for 100 steps with 256000 atoms

Performance: 100535.008 tau/day, 96.967 timesteps/s
98.0% CPU use with 8 MPI tasks x 1 OpenMP threads

MPI task timing breakdown:
Section |  min time  |  avg time  |  max time  |%varavg|  %CPU | %total
-----------------------------------------------------------------------
Pair    | 0.26796    | 0.2726     | 0.27985    |   0.8 |  98.7 | 26.43
Bond    | 0.049209   | 0.050902   | 0.053597   |   0.7 |  98.4 |  4.94
Neigh   | 0.2294     | 0.23024    | 0.23099    |   0.1 |  98.8 | 22.33
Comm    | 0.18473    | 0.19694    | 0.20665    |   1.7 |  96.3 | 19.10
Output  | 0.00016788 | 0.00037971 | 0.00041799 |   0.0 | 100.0 |  0.04
Modify  | 0.22336    | 0.23053    | 0.241      |   1.3 |  97.9 | 22.35
Other   |            | 0.04969    |            |       |       |  4.82

Nlocal:          32000 ave       32038 max       31962 min
Histogram: 1 1 0 2 0 1 0 1 1 1
Nghost:         9488.5 ave        9543 max        9457 min
Histogram: 3 1 0 0 1 1 0 1 0 1
Neighs:         187534 ave      187943 max      187277 min
Histogram: 2 3 0 0 0 0 1 0 1 1

Total # of neighbors = 1500273
Ave neighs/atom = 5.8604414
Ave special neighs/atom = 1.98
Neighbor list builds = 25
Dangerous builds = 0
Total wall time: 0:00:01
Intel(R) VTune(TM) Profiler 2022.2.0 collection completed successfully. Use the "aps --report /home/ubuntu/lammps/bench/aps_result_20220519" command to generate textual and HTML reports for the profiling session.
