LAMMPS (7 Jan 2022)
  using 1 OpenMP thread(s) per MPI task
Reading data file ...
  orthogonal box = (0 0 0) to (40 20 37.2886)
  4 by 2 by 2 MPI processor grid
  reading atoms ...
  32000 atoms
  reading velocities ...
  32000 velocities
  read_data CPU = 0.102 seconds
Replicating atoms ...
  orthogonal box = (0 0 0) to (80 40 37.292229)
  4 by 2 by 2 MPI processor grid
  128000 atoms
  replicate CPU = 0.013 seconds
3648 atoms in group bottom
124352 atoms in group active
  generated 0 of 1 mixed pair_coeff terms from geometric mixing rule
Neighbor list info ...
  update every 1 steps, delay 0 steps, check yes
  max neighbors/atom: 2000, page size: 100000
  master list distance cutoff = 1.1
  ghost atom cutoff = 1.1
  binsize = 0.55, bins = 146 73 68
  1 neighbor lists, perpetual/occasional/extra = 1 0 0
  (1) pair gran/hooke/history, perpetual
      attributes: half, newton off, size, history
      pair build: half/size/bin/newtoff
      stencil: full/bin/3d
      bin: standard
Setting up Verlet run ...
  Unit style    : lj
  Current step  : 0
  Time step     : 0.0001
Per MPI rank memory allocation (min/avg/max) = 10.6 | 10.6 | 10.6 Mbytes
Step Atoms KinEng c_1 Volume 
       0   128000    3136556.5    6404.5051    119335.13 
     100   128000    3137168.3    6284.3873    119338.83 
     200   128000    3137690.9    6295.4536    119344.92 
     300   128000    3138253.9    6321.8969    119350.91 
     400   128000    3138832.7    6288.9526     119356.6 
     500   128000    3139327.1    6256.1914    119362.78 
     600   128000    3139885.5    6257.8044    119368.93 
     700   128000    3140514.4    6209.8384    119374.78 
     800   128000      3141161    6220.8836    119380.33 
     900   128000    3141842.7    6183.5273    119385.59 
    1000   128000    3142288.8    6159.4689    119390.54 
    1100   128000    3142810.3    6135.2073     119395.2 
    1200   128000    3143288.2    6183.7341    119399.55 
    1300   128000    3143718.5    6199.7412    119403.61 
    1400   128000    3144046.3    6211.2795    119407.37 
    1500   128000    3144431.8      6264.59    119410.83 
    1600   128000    3144763.5    6293.3333    119413.98 
    1700   128000    3145075.2    6371.1729    119416.84 
    1800   128000    3145299.8    6424.1459    119418.58 
    1900   128000    3145503.5    6457.3249    119420.94 
    2000   128000    3145733.4    6475.4029    119423.01 
    2100   128000    3145949.1     6546.784    119424.77 
    2200   128000    3146210.8    6562.6715    119426.23 
    2300   128000    3146458.3    6556.3776     119427.4 
    2400   128000    3146759.6    6534.0436    119428.26 
    2500   128000    3147000.9    6528.1882    119428.83 
    2600   128000    3147183.7    6556.6095    119429.09 
    2700   128000    3147337.5    6595.5748    119429.27 
    2800   128000    3147430.9    6600.4747    119429.94 
    2900   128000    3147552.7    6616.6931    119430.31 
    3000   128000    3147617.1     6615.805    119430.37 
    3100   128000    3147735.1    6668.7149    119430.14 
    3200   128000    3147885.2    6707.3022    119429.61 
    3300   128000    3148163.7    6683.2996    119428.78 
    3400   128000    3148455.1    6656.8927    119427.66 
    3500   128000    3148741.1    6652.3314    119426.29 
    3600   128000    3149025.1    6625.7384    119424.62 
    3700   128000    3149260.8    6630.4843    119422.68 
    3800   128000    3149475.1    6637.4413    119420.38 
    3900   128000    3149661.8    6646.5366    119417.79 
    4000   128000    3149843.7    6633.7526    119415.89 
    4100   128000      3149974    6627.7226    119416.07 
    4200   128000      3150050    6616.1186    119416.52 
    4300   128000    3150131.6    6615.5311    119416.67 
    4400   128000    3150154.7    6634.9081    119416.52 
    4500   128000    3150193.9    6670.4735    119416.08 
    4600   128000    3150239.8    6694.5798    119415.33 
    4700   128000      3150319     6698.981    119414.28 
    4800   128000    3150365.8    6703.1407    119412.93 
    4900   128000    3150464.6    6737.7973    119411.29 
    5000   128000    3150590.8    6771.0094    119409.58 
    5100   128000    3150727.9    6772.7645    119407.86 
    5200   128000    3150903.9    6792.9893    119405.85 
    5300   128000    3151099.1    6837.9448    119403.53 
    5400   128000    3151348.7    6833.5413    119400.92 
    5500   128000    3151586.5    6828.2058    119398.01 
    5600   128000    3151811.1    6837.8433    119394.79 
    5700   128000    3152055.8    6851.1905    119393.25 
    5800   128000    3152321.9    6852.7509    119392.34 
    5900   128000    3152576.2    6849.9247    119391.13 
    6000   128000    3152839.1    6830.4785    119389.67 
    6100   128000    3153100.6    6811.8199    119389.04 
    6200   128000    3153364.2    6803.6512    119390.35 
    6300   128000    3153600.6    6798.8685    119391.38 
    6400   128000    3153805.4    6788.7862    119392.31 
    6500   128000    3154028.4    6795.4557    119392.68 
    6600   128000    3154340.1    6786.6037    119392.76 
    6700   128000    3154653.7     6782.416    119392.57 
    6800   128000    3155005.7    6738.7936    119392.09 
    6900   128000    3155355.4    6710.3045     119391.3 
    7000   128000    3155714.3    6687.2991    119390.61 
    7100   128000    3156067.5    6658.5764    119389.32 
    7200   128000    3156366.8    6640.4324    119387.74 
    7300   128000    3156667.9    6626.3535    119385.85 
    7400   128000    3156933.1    6633.5432    119383.67 
    7500   128000    3157190.5    6611.5612    119381.18 
    7600   128000    3157415.1    6613.7376     119378.4 
    7700   128000    3157602.4    6628.0697    119375.32 
    7800   128000      3157779    6641.0742    119371.93 
    7900   128000    3157921.8     6659.102    119368.25 
    8000   128000    3158064.7     6675.154    119364.27 
    8100   128000    3158186.9    6698.7804    119360.04 
    8200   128000    3158330.1    6703.7709     119355.6 
    8300   128000    3158508.4     6689.606    119350.88 
    8400   128000    3158674.8    6668.5722    119345.88 
    8500   128000      3158793    6678.2939     119340.6 
    8600   128000    3158915.5    6691.0107    119335.04 
    8700   128000    3159015.7    6709.0523    119329.19 
    8800   128000    3159046.4    6743.7076    119323.06 
    8900   128000    3159034.3    6759.6139    119316.65 
    9000   128000    3159014.1    6787.5323    119309.96 
    9100   128000      3158994     6804.354    119302.99 
    9200   128000      3158955    6807.4037    119295.73 
    9300   128000    3158873.8    6821.3862    119288.19 
    9400   128000    3158802.9    6830.9959    119280.37 
    9500   128000    3158732.4     6829.763    119272.27 
    9600   128000    3158636.8    6847.2301    119263.89 
    9700   128000    3158555.2    6871.7585    119255.22 
    9800   128000    3158499.7     6887.736    119246.28 
    9900   128000    3158484.4    6882.9775    119252.81 
   10000   128000    3158484.6    6880.6591    119269.92 
Loop time of 8.67614 on 16 procs for 10000 steps with 128000 atoms

Performance: 9958.343 tau/day, 1152.586 timesteps/s
99.4% CPU use with 16 MPI tasks x 1 OpenMP threads

MPI task timing breakdown:
Section |  min time  |  avg time  |  max time  |%varavg| %total
---------------------------------------------------------------
Pair    | 3.546      | 4.0322     | 4.5557     |  21.3 | 46.47
Neigh   | 1.2876     | 1.3767     | 1.4096     |   2.4 | 15.87
Comm    | 0.73061    | 0.78       | 0.83042    |   3.8 |  8.99
Output  | 0.0055775  | 0.010756   | 0.016777   |   3.9 |  0.12
Modify  | 1.3465     | 1.4222     | 1.4579     |   2.2 | 16.39
Other   |            | 1.054      |            |       | 12.15

Nlocal:           8000 ave        8035 max        7970 min
Histogram: 2 5 1 0 0 1 1 3 1 2
Nghost:        2444.62 ave        2455 max        2429 min
Histogram: 1 0 3 0 1 2 2 1 3 3
Neighs:        29520.4 ave       30252 max       28809 min
Histogram: 7 1 0 0 0 0 0 0 1 7

Total # of neighbors = 472327
Ave neighs/atom = 3.6900547
Neighbor list builds = 296
Dangerous builds = 0
Total wall time: 0:00:08
Intel(R) VTune(TM) Profiler 2022.2.0 collection completed successfully. Use the "aps --report /home/ubuntu/lammps/bench/aps_result_20220703" command to generate textual and HTML reports for the profiling session.
