LAMMPS (7 Jan 2022)
  using 1 OpenMP thread(s) per MPI task
Reading data file ...
  orthogonal box = (0 0 0) to (40 20 37.2886)
  4 by 4 by 4 MPI processor grid
  reading atoms ...
  32000 atoms
  reading velocities ...
  32000 velocities
  read_data CPU = 0.080 seconds
Replicating atoms ...
  orthogonal box = (0 0 0) to (120 60 37.292229)
  8 by 4 by 2 MPI processor grid
  288000 atoms
  replicate CPU = 0.020 seconds
8208 atoms in group bottom
279792 atoms in group active
  generated 0 of 1 mixed pair_coeff terms from geometric mixing rule
Neighbor list info ...
  update every 1 steps, delay 0 steps, check yes
  max neighbors/atom: 2000, page size: 100000
  master list distance cutoff = 1.1
  ghost atom cutoff = 1.1
  binsize = 0.55, bins = 219 110 68
  1 neighbor lists, perpetual/occasional/extra = 1 0 0
  (1) pair gran/hooke/history, perpetual
      attributes: half, newton off, size, history
      pair build: half/size/bin/newtoff
      stencil: full/bin/3d
      bin: standard
Setting up Verlet run ...
  Unit style    : lj
  Current step  : 0
  Time step     : 0.0001
Per MPI rank memory allocation (min/avg/max) = 10.37 | 10.37 | 10.37 Mbytes
Step Atoms KinEng c_1 Volume 
       0   288000    7057252.2    14410.137    268504.05 
     100   288000    7058628.7    14139.871    268512.37 
Loop time of 0.0521405 on 64 procs for 100 steps with 288000 atoms

Performance: 16570.619 tau/day, 1917.896 timesteps/s
97.2% CPU use with 64 MPI tasks x 1 OpenMP threads

MPI task timing breakdown:
Section |  min time  |  avg time  |  max time  |%varavg| %total
---------------------------------------------------------------
Pair    | 0.016445   | 0.021041   | 0.02499    |   2.0 | 40.35
Neigh   | 0.0047573  | 0.0056667  | 0.0063445  |   0.8 | 10.87
Comm    | 0.007432   | 0.0080761  | 0.0086941  |   0.3 | 15.49
Output  | 3.9364e-05 | 9.0589e-05 | 0.00015055 |   0.0 |  0.17
Modify  | 0.0071478  | 0.0084557  | 0.0092476  |   1.0 | 16.22
Other   |            | 0.008811   |            |       | 16.90

Nlocal:           4500 ave        4518 max        4467 min
Histogram: 4 0 4 0 4 12 12 8 4 16
Nghost:        1770.81 ave        1806 max        1751 min
Histogram: 8 4 8 24 12 0 4 0 0 4
Neighs:        16846.8 ave       17466 max       16089 min
Histogram: 16 8 8 0 0 0 0 0 0 32

Total # of neighbors = 1078192
Ave neighs/atom = 3.7437222
Neighbor list builds = 2
Dangerous builds = 0
Total wall time: 0:00:00
Intel(R) VTune(TM) Profiler 2022.2.0 collection completed successfully. Use the "aps --report /home/ubuntu/lammps/bench/aps_result_20220601" command to generate textual and HTML reports for the profiling session.
