LAMMPS (7 Jan 2022)
  using 1 OpenMP thread(s) per MPI task
Reading data file ...
  orthogonal box = (0 0 0) to (40 20 37.2886)
  2 by 1 by 1 MPI processor grid
  reading atoms ...
  32000 atoms
  reading velocities ...
  32000 velocities
  read_data CPU = 0.134 seconds
Replicating atoms ...
  orthogonal box = (0 0 0) to (80 40 37.292229)
  2 by 1 by 1 MPI processor grid
  128000 atoms
  replicate CPU = 0.018 seconds
3648 atoms in group bottom
124352 atoms in group active
  generated 0 of 1 mixed pair_coeff terms from geometric mixing rule
Neighbor list info ...
  update every 1 steps, delay 0 steps, check yes
  max neighbors/atom: 2000, page size: 100000
  master list distance cutoff = 1.1
  ghost atom cutoff = 1.1
  binsize = 0.55, bins = 146 73 68
  1 neighbor lists, perpetual/occasional/extra = 1 0 0
  (1) pair gran/hooke/history, perpetual
      attributes: half, newton off, size, history
      pair build: half/size/bin/newtoff
      stencil: full/bin/3d
      bin: standard
Setting up Verlet run ...
  Unit style    : lj
  Current step  : 0
  Time step     : 0.0001
Per MPI rank memory allocation (min/avg/max) = 36.72 | 36.72 | 36.72 Mbytes
Step Atoms KinEng c_1 Volume 
       0   128000    3136556.5    6404.5051    119335.13 
     100   128000    3137168.3    6284.3873    119338.83 
     200   128000    3137690.9    6295.4536    119344.92 
     300   128000    3138253.9    6321.8969    119350.91 
     400   128000    3138832.7    6288.9526     119356.6 
     500   128000    3139327.1    6256.1914    119362.78 
     600   128000    3139885.5    6257.8044    119368.93 
     700   128000    3140514.4    6209.8384    119374.78 
     800   128000      3141161    6220.8836    119380.33 
     900   128000    3141842.7    6183.5273    119385.59 
    1000   128000    3142288.8    6159.4689    119390.54 
    1100   128000    3142810.3    6135.2073     119395.2 
    1200   128000    3143288.2    6183.7341    119399.55 
    1300   128000    3143718.5    6199.7412    119403.61 
    1400   128000    3144046.3    6211.2795    119407.37 
    1500   128000    3144431.8      6264.59    119410.83 
    1600   128000    3144763.5    6293.3333    119413.98 
    1700   128000    3145075.2     6371.173    119416.84 
    1800   128000    3145299.8    6424.1455    119418.58 
    1900   128000    3145503.5    6457.3244    119420.94 
    2000   128000    3145733.4    6475.4013    119423.01 
    2100   128000    3145949.1    6546.7799    119424.77 
    2200   128000    3146210.8    6562.6722    119426.23 
    2300   128000    3146458.4    6556.3677     119427.4 
    2400   128000    3146759.6    6534.0021    119428.26 
    2500   128000    3147000.8    6528.1836    119428.83 
    2600   128000    3147183.6    6556.5146    119429.09 
    2700   128000    3147337.3    6595.7223    119429.27 
    2800   128000    3147430.1     6601.187    119429.94 
    2900   128000      3147556    6614.6763    119430.31 
    3000   128000    3147618.8    6617.1689    119430.37 
    3100   128000    3147740.7    6666.1259    119430.14 
    3200   128000    3147895.5    6701.1827    119429.61 
    3300   128000      3148168    6678.5573    119428.78 
    3400   128000    3148451.2    6668.9665    119427.66 
    3500   128000      3148753    6653.0427    119426.29 
    3600   128000    3149025.9    6624.7125    119424.62 
    3700   128000    3149267.2    6619.0662    119422.68 
    3800   128000    3149462.7    6639.4964    119420.38 
    3900   128000    3149656.2    6650.7376    119417.79 
    4000   128000    3149840.9    6647.1365    119415.89 
    4100   128000    3149972.5    6627.0379     119416.1 
    4200   128000      3150042    6631.9324    119416.55 
    4300   128000    3150119.1    6624.7952     119416.7 
    4400   128000    3150179.4    6632.0144    119416.55 
    4500   128000    3150210.8    6664.1057     119416.1 
    4600   128000    3150251.6    6691.3462    119415.35 
    4700   128000    3150347.3    6707.8737     119414.3 
    4800   128000    3150443.2    6707.2998    119412.96 
    4900   128000    3150537.1    6731.8771    119411.31 
    5000   128000    3150650.7    6780.0612    119409.37 
    5100   128000    3150803.6    6824.6792    119407.12 
    5200   128000    3150989.1    6842.6761    119404.58 
    5300   128000    3151210.5    6861.8194    119401.74 
    5400   128000    3151434.9    6882.6356    119398.63 
    5500   128000    3151696.6    6884.3963    119395.19 
    5600   128000    3151962.7    6899.1254    119391.45 
    5700   128000    3152203.8    6889.1514    119387.54 
    5800   128000    3152469.2    6900.5399    119385.08 
    5900   128000    3152746.6    6879.6533     119384.7 
    6000   128000    3153039.6    6836.4904    119384.05 
    6100   128000    3153325.8    6827.9045    119383.11 
    6200   128000    3153652.8    6816.7055    119381.89 
    6300   128000    3154018.9    6792.9583    119380.39 
    6400   128000    3154342.5    6771.9329     119378.6 
    6500   128000    3154703.5    6745.5308    119376.53 
    6600   128000    3155061.9    6739.2156    119374.19 
    6700   128000    3155463.6    6700.9378    119371.56 
    6800   128000    3155850.5    6660.1556    119368.61 
    6900   128000      3156248    6621.9622    119365.32 
    7000   128000    3156634.4    6604.3882    119361.72 
    7100   128000    3156968.1    6592.5608    119357.82 
    7200   128000    3157281.6    6595.3077    119356.33 
    7300   128000    3157577.7    6584.7553    119355.53 
    7400   128000    3157838.6    6583.6574    119354.43 
    7500   128000    3158100.9    6583.8052    119353.53 
    7600   128000    3158310.3    6610.5134    119351.93 
    7700   128000    3158522.5    6618.8517    119350.03 
    7800   128000    3158703.6    6626.6503    119347.83 
    7900   128000      3158834    6633.1018    119345.33 
    8000   128000    3158964.5    6640.6364    119342.53 
    8100   128000    3159056.7    6661.8973    119339.43 
    8200   128000    3159135.4    6667.8411     119336.1 
    8300   128000    3159210.5    6675.1809    119332.53 
    8400   128000    3159280.9    6690.8658    119328.67 
    8500   128000    3159392.2    6698.5413    119324.53 
    8600   128000    3159469.7    6720.4203     119320.1 
    8700   128000    3159519.3    6752.6427     119315.4 
    8800   128000    3159539.5    6751.1011    119310.41 
    8900   128000    3159552.5    6763.1312    119305.14 
    9000   128000    3159501.8    6795.0076    119299.59 
    9100   128000    3159435.2    6815.8449    119293.76 
    9200   128000    3159356.5      6831.21    119287.65 
    9300   128000    3159305.9     6845.128    119281.25 
    9400   128000    3159224.8    6849.8068    119283.32 
    9500   128000    3159106.9    6874.3391    119290.22 
    9600   128000    3159036.2    6885.0852    119295.07 
    9700   128000    3158967.2    6884.1073    119299.63 
    9800   128000    3158904.8    6893.8049    119303.91 
    9900   128000    3158847.2    6886.5779    119307.92 
   10000   128000    3158839.3      6865.71    119311.64 
Loop time of 57.4449 on 2 procs for 10000 steps with 128000 atoms

Performance: 1504.050 tau/day, 174.080 timesteps/s
99.9% CPU use with 2 MPI tasks x 1 OpenMP threads

MPI task timing breakdown:
Section |  min time  |  avg time  |  max time  |%varavg| %total
---------------------------------------------------------------
Pair    | 30.687     | 30.711     | 30.734     |   0.4 | 53.46
Neigh   | 9.8398     | 9.8594     | 9.8789     |   0.6 | 17.16
Comm    | 2.2501     | 2.2509     | 2.2517     |   0.1 |  3.92
Output  | 0.025324   | 0.026119   | 0.026914   |   0.5 |  0.05
Modify  | 11.552     | 11.555     | 11.558     |   0.1 | 20.11
Other   |            | 3.043      |            |       |  5.30

Nlocal:          64000 ave       64006 max       63994 min
Histogram: 1 0 0 0 0 0 0 0 0 1
Nghost:           7250 ave        7255 max        7245 min
Histogram: 1 0 0 0 0 0 0 0 0 1
Neighs:         227668 ave      227713 max      227622 min
Histogram: 1 0 0 0 0 0 0 0 0 1

Total # of neighbors = 455335
Ave neighs/atom = 3.5573047
Neighbor list builds = 297
Dangerous builds = 0
Total wall time: 0:00:57
Intel(R) VTune(TM) Profiler 2022.2.0 collection completed successfully. Use the "aps --report /home/ubuntu/lammps/bench/aps_result_20220703" command to generate textual and HTML reports for the profiling session.
