LAMMPS (7 Jan 2022)
  using 1 OpenMP thread(s) per MPI task
New timer settings: style=full  mode=nosync  timeout=off
Reading data file ...
  orthogonal box = (-16.796 -16.796 -16.796) to (16.796 16.796 16.796)
  2 by 2 by 2 MPI processor grid
  reading atoms ...
  32000 atoms
  reading velocities ...
  32000 velocities
  scanning bonds ...
  1 = max bonds/atom
  reading bonds ...
  31680 bonds
Finding 1-2 1-3 1-4 neighbors ...
  special bond factors lj:    0        1        1       
  special bond factors coul:  0        1        1       
     2 = max # of 1-2 neighbors
     2 = max # of special neighbors
  special bonds CPU = 0.002 seconds
  read_data CPU = 0.112 seconds
----------------------------------------------------------
Using INTEL Package without Coprocessor.
Compiler: Intel Classic C++ 20.21.5 / Intel(R) C++ g++ 9.3 mode
SIMD compiler directives: Enabled
Precision: mixed
----------------------------------------------------------
  generated 0 of 0 mixed pair_coeff terms from geometric mixing rule
Neighbor list info ...
  update every 1 steps, delay 1 steps, check yes
  max neighbors/atom: 2000, page size: 100000
  master list distance cutoff = 1.52
  ghost atom cutoff = 1.52
  binsize = 0.76, bins = 45 45 45
  1 neighbor lists, perpetual/occasional/extra = 1 0 0
  (1) pair lj/cut/intel, perpetual
      attributes: half, newton on, intel
      pair build: half/bin/newton/intel
      stencil: half/bin/3d
      bin: intel
Setting up Verlet run ...
  Unit style    : lj
  Current step  : 0
  Time step     : 0.012
WARNING: Communication cutoff 1.52 is shorter than a bond length based estimate of 1.855. This may lead to errors. (../comm.cpp:723)
Per MPI rank memory allocation (min/avg/max) = 38.28 | 38.47 | 38.57 Mbytes
Step Temp E_pair E_mol TotEng Press 
       0   0.97029772   0.44484085    20.494523    22.394765    4.6721835 
     100   0.97432589   0.44082469    20.504378    22.406646    4.6543451 
Loop time of 0.121622 on 8 procs for 100 steps with 32000 atoms

Performance: 852477.656 tau/day, 822.220 timesteps/s
95.7% CPU use with 8 MPI tasks x 1 OpenMP threads

MPI task timing breakdown:
Section |  min time  |  avg time  |  max time  |%varavg|  %CPU | %total
-----------------------------------------------------------------------
Pair    | 0.032415   | 0.03297    | 0.033648   |   0.2 |  95.9 | 27.11
Bond    | 0.0055028  | 0.0055613  | 0.0057422  |   0.1 |  95.2 |  4.57
Neigh   | 0.029465   | 0.02955    | 0.029618   |   0.0 |  96.2 | 24.30
Comm    | 0.022969   | 0.023429   | 0.023963   |   0.2 |  94.2 | 19.26
Output  | 4.2177e-05 | 4.7418e-05 | 5.9671e-05 |   0.0 | 100.0 |  0.04
Modify  | 0.024869   | 0.025066   | 0.025319   |   0.1 |  96.1 | 20.61
Other   |            | 0.004999   |            |       |       |  4.11

Nlocal:           4000 ave        4017 max        3972 min
Histogram: 1 0 0 0 0 2 2 1 0 2
Nghost:         2586.5 ave        2625 max        2545 min
Histogram: 2 0 0 0 1 0 3 1 0 1
Neighs:        23458.5 ave       23723 max       23126 min
Histogram: 1 0 0 0 0 5 0 1 0 1

Total # of neighbors = 187668
Ave neighs/atom = 5.864625
Ave special neighs/atom = 1.98
Neighbor list builds = 25
Dangerous builds = 0
Total wall time: 0:00:00
Intel(R) VTune(TM) Profiler 2022.2.0 collection completed successfully. Use the "aps --report /home/ubuntu/lammps/bench/aps_result_20220519" command to generate textual and HTML reports for the profiling session.
