LAMMPS (7 Jan 2022)
  using 1 OpenMP thread(s) per MPI task
Reading data file ...
  orthogonal box = (-16.796 -16.796 -16.796) to (16.796 16.796 16.796)
  4 by 4 by 4 MPI processor grid
  reading atoms ...
  32000 atoms
  reading velocities ...
  32000 velocities
  scanning bonds ...
  1 = max bonds/atom
  reading bonds ...
  31680 bonds
Finding 1-2 1-3 1-4 neighbors ...
  special bond factors lj:    0        1        1       
  special bond factors coul:  0        1        1       
     2 = max # of 1-2 neighbors
     2 = max # of special neighbors
  special bonds CPU = 0.270 seconds
  read_data CPU = 0.590 seconds
Replicating atoms ...
  orthogonal box = (-16.796 -16.796 -16.796) to (117.572 117.572 117.572)
  4 by 4 by 4 MPI processor grid
  2048000 atoms
  2027520 bonds
Finding 1-2 1-3 1-4 neighbors ...
  special bond factors lj:    0        1        1       
  special bond factors coul:  0        1        1       
     2 = max # of 1-2 neighbors
     2 = max # of special neighbors
  special bonds CPU = 0.077 seconds
  replicate CPU = 0.256 seconds
----------------------------------------------------------
Using INTEL Package without Coprocessor.
Compiler: Intel Classic C++ 20.21.5 / Intel(R) C++ g++ 9.3 mode
SIMD compiler directives: Enabled
Precision: single
----------------------------------------------------------
  generated 0 of 0 mixed pair_coeff terms from geometric mixing rule
Neighbor list info ...
  update every 1 steps, delay 1 steps, check yes
  max neighbors/atom: 2000, page size: 100000
  master list distance cutoff = 1.52
  ghost atom cutoff = 1.52
  binsize = 0.76, bins = 177 177 177
  1 neighbor lists, perpetual/occasional/extra = 1 0 0
  (1) pair lj/cut/intel, perpetual
      attributes: half, newton on, intel
      pair build: half/bin/newton/intel
      stencil: half/bin/3d
      bin: intel
Setting up Verlet run ...
  Unit style    : lj
  Current step  : 0
  Time step     : 0.012
WARNING: Communication cutoff 1.52 is shorter than a bond length based estimate of 1.855. This may lead to errors. (../comm.cpp:723)
Per MPI rank memory allocation (min/avg/max) = 285 | 285 | 285 Mbytes
Step Temp E_pair E_mol TotEng Press 
       0   0.97026787   0.44483991    20.494341    22.394582    4.6721835 
     100   0.97351002   0.44127268      20.5018    22.403337    4.6878235 
Loop time of 3.73122 on 64 procs for 100 steps with 2048000 atoms

Performance: 27787.179 tau/day, 26.801 timesteps/s
91.0% CPU use with 64 MPI tasks x 1 OpenMP threads

MPI task timing breakdown:
Section |  min time  |  avg time  |  max time  |%varavg| %total
---------------------------------------------------------------
Pair    | 0.23445    | 0.25433    | 0.40972    |   5.6 |  6.82
Bond    | 0.036963   | 0.040843   | 0.046033   |   1.4 |  1.09
Neigh   | 0.49835    | 0.60274    | 0.69971    |   9.2 | 16.15
Comm    | 0.7217     | 1.0717     | 1.4599     |  21.4 | 28.72
Output  | 0.010733   | 0.026405   | 0.026738   |   1.2 |  0.71
Modify  | 0.18837    | 0.21125    | 0.56961    |  10.5 |  5.66
Other   |            | 1.524      |            |       | 40.84

Nlocal:          32000 ave       32050 max       31941 min
Histogram: 1 4 5 3 17 8 7 13 3 3
Nghost:        9501.41 ave        9582 max        9414 min
Histogram: 1 1 7 7 13 12 15 4 2 2
Neighs:         187462 ave      187930 max      186944 min
Histogram: 2 7 4 7 7 12 10 4 6 5

Total # of neighbors = 11997572
Ave neighs/atom = 5.8581895
Ave special neighs/atom = 1.98
Neighbor list builds = 26
Dangerous builds = 0
Total wall time: 0:00:04
Intel(R) VTune(TM) Profiler 2022.2.0 collection completed successfully. Use the "aps --report /home/ubuntu/lammps/bench/aps_result_20220531" command to generate textual and HTML reports for the profiling session.
