LAMMPS (7 Jan 2022)
  using 1 OpenMP thread(s) per MPI task
Reading data file ...
  orthogonal box = (-16.796 -16.796 -16.796) to (16.796 16.796 16.796)
  1 by 1 by 2 MPI processor grid
  reading atoms ...
  32000 atoms
  reading velocities ...
  32000 velocities
  scanning bonds ...
  1 = max bonds/atom
  reading bonds ...
  31680 bonds
Finding 1-2 1-3 1-4 neighbors ...
  special bond factors lj:    0        1        1       
  special bond factors coul:  0        1        1       
     2 = max # of 1-2 neighbors
     2 = max # of special neighbors
  special bonds CPU = 0.002 seconds
  read_data CPU = 0.130 seconds
----------------------------------------------------------
Using INTEL Package without Coprocessor.
Compiler: Intel Classic C++ 20.21.5 / Intel(R) C++ g++ 9.3 mode
SIMD compiler directives: Enabled
Precision: mixed
----------------------------------------------------------
  generated 0 of 0 mixed pair_coeff terms from geometric mixing rule
Neighbor list info ...
  update every 1 steps, delay 1 steps, check yes
  max neighbors/atom: 2000, page size: 100000
  master list distance cutoff = 1.52
  ghost atom cutoff = 1.52
  binsize = 0.76, bins = 45 45 45
  1 neighbor lists, perpetual/occasional/extra = 1 0 0
  (1) pair lj/cut/intel, perpetual
      attributes: half, newton on, intel
      pair build: half/bin/newton/intel
      stencil: half/bin/3d
      bin: intel
Setting up Verlet run ...
  Unit style    : lj
  Current step  : 0
  Time step     : 0.012
WARNING: Communication cutoff 1.52 is shorter than a bond length based estimate of 1.855. This may lead to errors. (../comm.cpp:723)
Per MPI rank memory allocation (min/avg/max) = 144.4 | 144.6 | 144.8 Mbytes
Step Temp E_pair E_mol TotEng Press 
       0   0.97029772   0.44484085    20.494523    22.394765    4.6721835 
     100   0.97388449   0.44559443    20.504002    22.410378    4.7116506 
     200   0.98412771   0.44486136     20.50295    22.423957    4.7613185 
     300   0.98457067   0.45005366    20.500335    22.427198    4.6621073 
     400   0.98928373   0.43746408    20.508781    22.430124    4.7497802 
     500   0.98113584   0.44830666    20.513726     22.43369    4.7022578 
     600   0.98870617   0.44508426    20.507808    22.435905     4.694277 
     700   0.98916929   0.45211285    20.506673    22.442493    4.8401901 
     800    0.9858092   0.45467803    20.505229    22.438574    4.7182459 
     900   0.98729436   0.45400904    20.504816     22.43972    4.7395766 
    1000   0.98871342   0.45222208    20.506994     22.44224    4.7901389 
    1100   0.99123497   0.44326097    20.512084    22.442151    4.7827975 
    1200   0.99587057   0.44145469    20.511392    22.446606    4.8087024 
    1300   0.99473592   0.44924892    20.513582    22.454888    4.7834944 
    1400   0.99772979   0.44759018    20.512888    22.457026    4.7697195 
    1500   0.99395815   0.45523173    20.516682    22.462804    4.7864815 
    1600   0.99819788   0.45456392     20.51737    22.469184    4.8530492 
    1700   0.99304618    0.4563263    20.517369    22.463218    4.8233544 
    1800    0.9944473   0.45075515    20.519036    22.461415    4.7293297 
    1900   0.99160845   0.45633175    20.513912     22.45761    4.8848061 
    2000   0.99523249   0.45406139    20.514953    22.461817    4.7942524 
    2100   0.99898739   0.45154717    20.516888    22.466869    4.6670343 
    2200   0.99396178   0.46101529    20.511497    22.463409    4.7624036 
    2300   0.99726254   0.45523434    20.521005    22.472086    4.7780041 
    2400    1.0029806   0.45062569    20.515444    22.470494    4.8349346 
    2500    1.0062788   0.45060773    20.518938    22.478917    4.8201622 
    2600   0.99828822   0.45929825    20.517457     22.47414    4.8574751 
    2700   0.99672531   0.45962023    20.518735    22.473396    4.8320478 
    2800    1.0009563   0.45801113    20.512276    22.471675    4.8184301 
    2900   0.99932497    0.4567253    20.521238    22.476904    4.7934675 
    3000    1.0085116   0.44709296    20.516354    22.476167    4.6360831 
    3100    1.0045575   0.45693557    20.515161    22.478886    4.7630381 
    3200    1.0048935   0.45287098    20.517918    22.478082    4.7980149 
    3300    1.0008563   0.45607102    20.517795    22.475104    4.8532541 
    3400    1.0036063   0.45080468    20.518144    22.474311    4.7576076 
    3500    1.0005488   0.45208254    20.517628    22.470487    4.7402378 
    3600    1.0012148   0.45472016    20.517507    22.474003    4.8023465 
    3700    1.0057424   0.45058532    20.519716    22.478868    4.8096449 
    3800   0.99996519   0.45554521    20.519665    22.475111    4.8117018 
    3900    1.0018603   0.45217399    20.515921    22.470838    4.8533816 
    4000    1.0008494   0.44684989    20.515475    22.463552    4.7915737 
    4100   0.99429618   0.45183375     20.51941    22.462641      4.74323 
    4200   0.99816526   0.45322173    20.509538    22.459961    4.7904739 
    4300    1.0001098   0.45447252    20.511316    22.465906    4.7952109 
    4400    1.0014595   0.45706215    20.515671    22.474876     4.809743 
    4500    1.0024016   0.45141046     20.52002    22.474985    4.7556254 
    4600    1.0020851   0.45934514     20.51858    22.481005    4.8084155 
    4700    1.0034076   0.45825746    20.520869    22.484191    4.7544974 
    4800    1.0078485   0.44879829    20.521225    22.481749    4.8169296 
    4900    1.0085539   0.45047459      20.5116    22.474858    4.7493377 
    5000    1.0082797   0.45272303    20.511069    22.476164     4.816128 
    5100    1.0010659   0.45249859    20.516356    22.470406    4.8181007 
    5200    1.0042068   0.44736449    20.518047    22.471674    4.6884688 
    5300    1.0053048   0.45397074    20.510984    22.472865    4.7771337 
    5400    1.0040936   0.44876862    20.518301    22.473163    4.8026786 
    5500    1.0021744   0.45544709    20.513699    22.472361    4.7419657 
    5600    1.0011429    0.4561552    20.518486    22.476309    4.8644205 
    5700    1.0036427   0.45542872    20.514886    22.475732    4.8269823 
    5800    1.0086502   0.45420207    20.512152    22.479282    4.8912518 
    5900    1.0133208   0.45019182    20.517162    22.487288      4.77791 
    6000    1.0027776   0.46260202    20.514021    22.480743    4.8829945 
    6100    1.0026506   0.45772574    20.516781    22.478435    4.7086952 
    6200    1.0001816   0.45435669    20.512233    22.466815    4.8204304 
    6300    0.9952766   0.45908615    20.516704    22.468658    4.7525605 
    6400    1.0019343   0.45429423    20.512843    22.469991    4.7908368 
    6500   0.99638864   0.45509695    20.511005    22.460638    4.7671444 
    6600   0.99422028   0.45374239    20.514437    22.459463    4.7898571 
    6700   0.99478343   0.45242962    20.516471    22.461029    4.8316488 
    6800    1.0037854   0.44676951    20.517508    22.469908    4.7838898 
    6900    1.0006505   0.45366536    20.518903    22.473498    4.7496445 
    7000    1.0003651   0.45945326    20.515048    22.475002    4.8754027 
    7100    1.0029328   0.45199709    20.517247    22.473597    4.7817385 
    7200   0.99788504   0.46038962    20.514016    22.471187    4.7991497 
    7300    1.0087322   0.45608343    20.512525    22.481659    4.8397016 
    7400    1.0092612   0.44826462     20.51312    22.475229    4.8605677 
    7500   0.99462436   0.45852161    20.515883    22.466294     4.839028 
    7600   0.99286718    0.4573716     20.52143    22.468056    4.8525646 
    7700   0.99816335   0.45103261    20.521676    22.469907     4.761898 
    7800    1.0009312   0.45524804    20.510502      22.4671    4.7622703 
    7900   0.99551403   0.45146056    20.523549    22.468234    4.8332051 
    8000    1.0014596   0.44866246     20.51585    22.466655    4.8363634 
    8100   0.99685727   0.45393124    20.514194    22.463364     4.806968 
    8200   0.99537246   0.44749857    20.515881    22.456392    4.8076284 
    8300   0.99733222   0.44830372     20.51421    22.458465    4.7111649 
    8400    1.0016924   0.45389529    20.509444    22.465831    4.7119321 
    8500    1.0023267   0.45241832    20.516136    22.471998    4.8261914 
    8600     1.001302   0.45817324    20.511391     22.47147    4.8178006 
    8700    1.0012439   0.45170911    20.514703    22.468231    4.7436877 
    8800    1.0046409   0.44922423    20.514863    22.471001    4.7657411 
    8900   0.99407636   0.46028457     20.51253    22.463883    4.8206948 
    9000   0.99689955   0.45405092    20.513797     22.46315    4.7916337 
    9100   0.99359086   0.46245912    20.518303    22.471102    4.7782182 
    9200    0.9995115   0.45806362     20.51908    22.476364    4.8189885 
    9300    1.0094066   0.44898221    20.510674    22.473719    4.7762702 
    9400    1.0079993   0.45007903    20.516621    22.478652    4.7948242 
    9500    1.0005821   0.45741495    20.514328    22.472569    4.7721814 
    9600   0.99847602   0.45546258    20.519461    22.472591    4.7793991 
    9700    1.0040673   0.45049714    20.513627    22.470178     4.771833 
    9800    1.0013227   0.45137141    20.513855    22.467164    4.7753892 
    9900   0.99861776    0.4576616    20.514098    22.469639    4.7830755 
   10000   0.99967079   0.45353389    20.516776    22.469769    4.8126795 
Loop time of 33.085 on 2 procs for 10000 steps with 32000 atoms

Performance: 313374.930 tau/day, 302.252 timesteps/s
99.8% CPU use with 2 MPI tasks x 1 OpenMP threads

MPI task timing breakdown:
Section |  min time  |  avg time  |  max time  |%varavg| %total
---------------------------------------------------------------
Pair    | 10.587     | 10.618     | 10.648     |   0.9 | 32.09
Bond    | 1.7722     | 1.7759     | 1.7797     |   0.3 |  5.37
Neigh   | 8.2865     | 8.288      | 8.2894     |   0.1 | 25.05
Comm    | 3.5555     | 3.5775     | 3.5996     |   1.2 | 10.81
Output  | 0.0077365  | 0.0078579  | 0.0079793  |   0.1 |  0.02
Modify  | 7.8238     | 7.8454     | 7.867      |   0.8 | 23.71
Other   |            | 0.9725     |            |       |  2.94

Nlocal:          16000 ave       16041 max       15959 min
Histogram: 1 0 0 0 0 0 0 0 0 1
Nghost:           6469 ave        6480 max        6458 min
Histogram: 1 0 0 0 0 0 0 0 0 1
Neighs:        93669.5 ave       94182 max       93157 min
Histogram: 1 0 0 0 0 0 0 0 0 1

Total # of neighbors = 187339
Ave neighs/atom = 5.8543437
Ave special neighs/atom = 1.98
Neighbor list builds = 2509
Dangerous builds = 0
Total wall time: 0:00:33
Intel(R) VTune(TM) Profiler 2022.2.0 collection completed successfully. Use the "aps --report /home/ubuntu/lammps/bench/aps_result_20220703" command to generate textual and HTML reports for the profiling session.
