LAMMPS (7 Jan 2022)
  using 1 OpenMP thread(s) per MPI task
Reading data file ...
  orthogonal box = (-16.796 -16.796 -16.796) to (16.796 16.796 16.796)
  1 by 1 by 2 MPI processor grid
  reading atoms ...
  32000 atoms
  reading velocities ...
  32000 velocities
  scanning bonds ...
  1 = max bonds/atom
  reading bonds ...
  31680 bonds
Finding 1-2 1-3 1-4 neighbors ...
  special bond factors lj:    0        1        1       
  special bond factors coul:  0        1        1       
     2 = max # of 1-2 neighbors
     2 = max # of special neighbors
  special bonds CPU = 0.003 seconds
  read_data CPU = 0.359 seconds
Replicating atoms ...
  orthogonal box = (-16.796 -16.796 -16.796) to (83.98 83.98 83.98)
  1 by 1 by 2 MPI processor grid
  864000 atoms
  855360 bonds
Finding 1-2 1-3 1-4 neighbors ...
  special bond factors lj:    0        1        1       
  special bond factors coul:  0        1        1       
     2 = max # of 1-2 neighbors
     2 = max # of special neighbors
  special bonds CPU = 0.132 seconds
  replicate CPU = 0.229 seconds
----------------------------------------------------------
Using INTEL Package without Coprocessor.
Compiler: Intel Classic C++ 20.21.5 / Intel(R) C++ g++ 9.3 mode
SIMD compiler directives: Enabled
Precision: single
----------------------------------------------------------
  generated 0 of 0 mixed pair_coeff terms from geometric mixing rule
Neighbor list info ...
  update every 1 steps, delay 1 steps, check yes
  max neighbors/atom: 2000, page size: 100000
  master list distance cutoff = 1.52
  ghost atom cutoff = 1.52
  binsize = 0.76, bins = 133 133 133
  1 neighbor lists, perpetual/occasional/extra = 1 0 0
  (1) pair lj/cut/intel, perpetual
      attributes: half, newton on, intel
      pair build: half/bin/newton/intel
      stencil: half/bin/3d
      bin: intel
Setting up Verlet run ...
  Unit style    : lj
  Current step  : 0
  Time step     : 0.012
WARNING: Communication cutoff 1.52 is shorter than a bond length based estimate of 1.855. This may lead to errors. (../comm.cpp:723)
Per MPI rank memory allocation (min/avg/max) = 3791 | 3793 | 3794 Mbytes
Step Temp E_pair E_mol TotEng Press 
       0   0.97026852   0.44480588    20.483771    22.383978    4.6721706 
     100   0.97318964   0.44188285    20.491675     22.39334     4.692522 
Loop time of 21.585 on 2 procs for 100 steps with 864000 atoms

Performance: 4803.336 tau/day, 4.633 timesteps/s
48.5% CPU use with 2 MPI tasks x 1 OpenMP threads

MPI task timing breakdown:
Section |  min time  |  avg time  |  max time  |%varavg| %total
---------------------------------------------------------------
Pair    | 4.9528     | 5.0173     | 5.0818     |   2.9 | 23.24
Bond    | 0.86077    | 0.87196    | 0.88316    |   1.2 |  4.04
Neigh   | 5.0327     | 5.074      | 5.1153     |   1.8 | 23.51
Comm    | 5.0795     | 5.1198     | 5.16       |   1.8 | 23.72
Output  | 0.00096957 | 0.00098095 | 0.00099234 |   0.0 |  0.00
Modify  | 4.4571     | 4.4768     | 4.4964     |   0.9 | 20.74
Other   |            | 1.024      |            |       |  4.74

Nlocal:         432000 ave      432076 max      431924 min
Histogram: 1 0 0 0 0 0 0 0 0 1
Nghost:        54110.5 ave       54152 max       54069 min
Histogram: 1 0 0 0 0 0 0 0 0 1
Neighs:    2.53027e+06 ave 2.53189e+06 max 2.52865e+06 min
Histogram: 1 0 0 0 0 0 0 0 0 1

Total # of neighbors = 5060536
Ave neighs/atom = 5.8571019
Ave special neighs/atom = 1.98
Neighbor list builds = 26
Dangerous builds = 0
Total wall time: 0:00:23
Intel(R) VTune(TM) Profiler 2022.2.0 collection completed successfully. Use the "aps --report /home/ubuntu/lammps/bench/aps_result_20220531" command to generate textual and HTML reports for the profiling session.
