LAMMPS (7 Jan 2022)
  using 1 OpenMP thread(s) per MPI task
Reading data file ...
  orthogonal box = (-16.796 -16.796 -16.796) to (16.796 16.796 16.796)
  2 by 2 by 4 MPI processor grid
  reading atoms ...
  32000 atoms
  reading velocities ...
  32000 velocities
  scanning bonds ...
  1 = max bonds/atom
  reading bonds ...
  31680 bonds
Finding 1-2 1-3 1-4 neighbors ...
  special bond factors lj:    0        1        1       
  special bond factors coul:  0        1        1       
     2 = max # of 1-2 neighbors
     2 = max # of special neighbors
  special bonds CPU = 0.003 seconds
  read_data CPU = 0.116 seconds
Replicating atoms ...
  orthogonal box = (-16.796 -16.796 -16.796) to (50.388 50.388 50.388)
  2 by 2 by 4 MPI processor grid
  256000 atoms
  253440 bonds
Finding 1-2 1-3 1-4 neighbors ...
  special bond factors lj:    0        1        1       
  special bond factors coul:  0        1        1       
     2 = max # of 1-2 neighbors
     2 = max # of special neighbors
  special bonds CPU = 0.005 seconds
  replicate CPU = 0.019 seconds
----------------------------------------------------------
Using INTEL Package without Coprocessor.
Compiler: Intel Classic C++ 20.21.5 / Intel(R) C++ g++ 9.3 mode
SIMD compiler directives: Enabled
Precision: single
----------------------------------------------------------
  generated 0 of 0 mixed pair_coeff terms from geometric mixing rule
Neighbor list info ...
  update every 1 steps, delay 1 steps, check yes
  max neighbors/atom: 2000, page size: 100000
  master list distance cutoff = 1.52
  ghost atom cutoff = 1.52
  binsize = 0.76, bins = 89 89 89
  1 neighbor lists, perpetual/occasional/extra = 1 0 0
  (1) pair lj/cut/intel, perpetual
      attributes: half, newton on, intel
      pair build: half/bin/newton/intel
      stencil: half/bin/3d
      bin: intel
Setting up Verlet run ...
  Unit style    : lj
  Current step  : 0
  Time step     : 0.012
WARNING: Communication cutoff 1.52 is shorter than a bond length based estimate of 1.855. This may lead to errors. (../comm.cpp:723)
Per MPI rank memory allocation (min/avg/max) = 144.9 | 145.1 | 145.3 Mbytes
Step Temp E_pair E_mol TotEng Press 
       0   0.97027119    0.4448406    20.494531    22.394772    4.6721844 
     100   0.97612698   0.44222385    20.497417    22.403825    4.6978938 
Loop time of 0.483748 on 16 procs for 100 steps with 256000 atoms

Performance: 214326.254 tau/day, 206.719 timesteps/s
97.0% CPU use with 16 MPI tasks x 1 OpenMP threads

MPI task timing breakdown:
Section |  min time  |  avg time  |  max time  |%varavg| %total
---------------------------------------------------------------
Pair    | 0.12733    | 0.12887    | 0.13102    |   0.3 | 26.64
Bond    | 0.019937   | 0.020421   | 0.0211     |   0.2 |  4.22
Neigh   | 0.11981    | 0.12022    | 0.12059    |   0.1 | 24.85
Comm    | 0.089455   | 0.09284    | 0.095858   |   0.6 | 19.19
Output  | 9.4442e-05 | 0.0001055  | 0.000144   |   0.0 |  0.02
Modify  | 0.10063    | 0.10166    | 0.10343    |   0.3 | 21.01
Other   |            | 0.01964    |            |       |  4.06

Nlocal:          16000 ave       16048 max       15962 min
Histogram: 3 0 3 3 0 2 3 0 0 2
Nghost:        6470.62 ave        6515 max        6435 min
Histogram: 1 3 1 2 3 1 2 1 0 2
Neighs:        93722.4 ave       94286 max       93106 min
Histogram: 1 0 2 2 3 3 1 2 1 1

Total # of neighbors = 1499559
Ave neighs/atom = 5.8576523
Ave special neighs/atom = 1.98
Neighbor list builds = 25
Dangerous builds = 0
Total wall time: 0:00:00
Intel(R) VTune(TM) Profiler 2022.2.0 collection completed successfully. Use the "aps --report /home/ubuntu/lammps/bench/aps_result_20220601" command to generate textual and HTML reports for the profiling session.
