LAMMPS (7 Jan 2022)
  using 1 OpenMP thread(s) per MPI task
New timer settings: style=full  mode=nosync  timeout=off
Reading data file ...
  orthogonal box = (-16.796 -16.796 -16.796) to (16.796 16.796 16.796)
  2 by 2 by 4 MPI processor grid
  reading atoms ...
  32000 atoms
  reading velocities ...
  32000 velocities
  scanning bonds ...
  1 = max bonds/atom
  reading bonds ...
  31680 bonds
Finding 1-2 1-3 1-4 neighbors ...
  special bond factors lj:    0        1        1       
  special bond factors coul:  0        1        1       
     2 = max # of 1-2 neighbors
     2 = max # of special neighbors
  special bonds CPU = 0.003 seconds
  read_data CPU = 0.112 seconds
Replicating atoms ...
  orthogonal box = (-16.796 -16.796 -16.796) to (83.98 83.98 83.98)
  2 by 2 by 4 MPI processor grid
  864000 atoms
  855360 bonds
Finding 1-2 1-3 1-4 neighbors ...
  special bond factors lj:    0        1        1       
  special bond factors coul:  0        1        1       
     2 = max # of 1-2 neighbors
     2 = max # of special neighbors
  special bonds CPU = 0.017 seconds
  replicate CPU = 0.043 seconds
----------------------------------------------------------
Using INTEL Package without Coprocessor.
Compiler: Intel Classic C++ 20.21.5 / Intel(R) C++ g++ 9.3 mode
SIMD compiler directives: Enabled
Precision: mixed
----------------------------------------------------------
  generated 0 of 0 mixed pair_coeff terms from geometric mixing rule
Neighbor list info ...
  update every 1 steps, delay 1 steps, check yes
  max neighbors/atom: 2000, page size: 100000
  master list distance cutoff = 1.52
  ghost atom cutoff = 1.52
  binsize = 0.76, bins = 133 133 133
  1 neighbor lists, perpetual/occasional/extra = 1 0 0
  (1) pair lj/cut/intel, perpetual
      attributes: half, newton on, intel
      pair build: half/bin/newton/intel
      stencil: half/bin/3d
      bin: intel
Setting up Verlet run ...
  Unit style    : lj
  Current step  : 0
  Time step     : 0.012
WARNING: Communication cutoff 1.52 is shorter than a bond length based estimate of 1.855. This may lead to errors. (../comm.cpp:723)
Per MPI rank memory allocation (min/avg/max) = 480.1 | 480.8 | 481.5 Mbytes
Step Temp E_pair E_mol TotEng Press 
       0   0.97026852   0.44484092    20.494523    22.394765    4.6721839 
     100   0.97369889   0.44090968    20.502103     22.40356    4.6736947 
Loop time of 2.01399 on 16 procs for 100 steps with 864000 atoms

Performance: 51479.869 tau/day, 49.653 timesteps/s
98.3% CPU use with 16 MPI tasks x 1 OpenMP threads

MPI task timing breakdown:
Section |  min time  |  avg time  |  max time  |%varavg|  %CPU | %total
-----------------------------------------------------------------------
Pair    | 0.49733    | 0.50549    | 0.52021    |   0.9 |  99.2 | 25.10
Bond    | 0.10057    | 0.10333    | 0.11007    |   0.8 |  99.5 |  5.13
Neigh   | 0.42165    | 0.42405    | 0.42615    |   0.2 |  99.6 | 21.06
Comm    | 0.44872    | 0.46953    | 0.48099    |   1.3 |  95.9 | 23.31
Output  | 0.00017417 | 0.0003519  | 0.00098993 |   0.0 | 100.0 |  0.02
Modify  | 0.39839    | 0.40887    | 0.42356    |   1.2 |  98.4 | 20.30
Other   |            | 0.1024     |            |       |       |  5.08

Nlocal:          54000 ave       54116 max       53865 min
Histogram: 2 0 1 1 3 2 3 2 0 2
Nghost:        14056.4 ave       14181 max       13963 min
Histogram: 3 1 1 3 1 2 2 1 1 1
Neighs:         316352 ave      317518 max      314747 min
Histogram: 1 1 0 1 3 3 1 1 2 3

Total # of neighbors = 5061634
Ave neighs/atom = 5.8583727
Ave special neighs/atom = 1.98
Neighbor list builds = 26
Dangerous builds = 0
Total wall time: 0:00:02
Intel(R) VTune(TM) Profiler 2022.2.0 collection completed successfully. Use the "aps --report /home/ubuntu/lammps/bench/aps_result_20220519" command to generate textual and HTML reports for the profiling session.
