LAMMPS (7 Jan 2022)
  using 1 OpenMP thread(s) per MPI task
Reading data file ...
  orthogonal box = (-16.796 -16.796 -16.796) to (16.796 16.796 16.796)
  2 by 2 by 4 MPI processor grid
  reading atoms ...
  32000 atoms
  reading velocities ...
  32000 velocities
  scanning bonds ...
  1 = max bonds/atom
  reading bonds ...
  31680 bonds
Finding 1-2 1-3 1-4 neighbors ...
  special bond factors lj:    0        1        1       
  special bond factors coul:  0        1        1       
     2 = max # of 1-2 neighbors
     2 = max # of special neighbors
  special bonds CPU = 0.002 seconds
  read_data CPU = 0.111 seconds
----------------------------------------------------------
Using INTEL Package without Coprocessor.
Compiler: Intel Classic C++ 20.21.5 / Intel(R) C++ g++ 9.3 mode
SIMD compiler directives: Enabled
Precision: single
----------------------------------------------------------
  generated 0 of 0 mixed pair_coeff terms from geometric mixing rule
Neighbor list info ...
  update every 1 steps, delay 1 steps, check yes
  max neighbors/atom: 2000, page size: 100000
  master list distance cutoff = 1.52
  ghost atom cutoff = 1.52
  binsize = 0.76, bins = 45 45 45
  1 neighbor lists, perpetual/occasional/extra = 1 0 0
  (1) pair lj/cut/intel, perpetual
      attributes: half, newton on, intel
      pair build: half/bin/newton/intel
      stencil: half/bin/3d
      bin: intel
Setting up Verlet run ...
  Unit style    : lj
  Current step  : 0
  Time step     : 0.012
WARNING: Communication cutoff 1.52 is shorter than a bond length based estimate of 1.855. This may lead to errors. (../comm.cpp:723)
Per MPI rank memory allocation (min/avg/max) = 21.19 | 21.38 | 21.51 Mbytes
Step Temp E_pair E_mol TotEng Press 
       0   0.97029772   0.44484099    20.494525    22.394767    4.6721836 
     100   0.97419077   0.44425026    20.500417    22.405908    4.7485519 
Loop time of 0.0598193 on 16 procs for 100 steps with 32000 atoms

Performance: 1733220.690 tau/day, 1671.702 timesteps/s
97.1% CPU use with 16 MPI tasks x 1 OpenMP threads

MPI task timing breakdown:
Section |  min time  |  avg time  |  max time  |%varavg| %total
---------------------------------------------------------------
Pair    | 0.01237    | 0.014996   | 0.015853   |   0.6 | 25.07
Bond    | 0.0018431  | 0.002297   | 0.0023566  |   0.2 |  3.84
Neigh   | 0.015491   | 0.015523   | 0.015573   |   0.0 | 25.95
Comm    | 0.01118    | 0.01216    | 0.01479    |   0.7 | 20.33
Output  | 2.6656e-05 | 3.2387e-05 | 5.4505e-05 |   0.0 |  0.05
Modify  | 0.0096891  | 0.012099   | 0.012339   |   0.6 | 20.23
Other   |            | 0.002712   |            |       |  4.53

Nlocal:           2000 ave        2028 max        1976 min
Histogram: 1 1 2 4 3 1 0 0 2 2
Nghost:        1800.12 ave        1836 max        1773 min
Histogram: 3 1 2 2 2 1 1 2 1 1
Neighs:        11713.9 ave       12033 max       11473 min
Histogram: 1 0 3 6 2 0 1 1 1 1

Total # of neighbors = 187422
Ave neighs/atom = 5.8569375
Ave special neighs/atom = 1.98
Neighbor list builds = 25
Dangerous builds = 0
Total wall time: 0:00:00
Intel(R) VTune(TM) Profiler 2022.2.0 collection completed successfully. Use the "aps --report /home/ubuntu/lammps/bench/aps_result_20220601" command to generate textual and HTML reports for the profiling session.
