LAMMPS (7 Jan 2022)
  using 1 OpenMP thread(s) per MPI task
Reading data file ...
  orthogonal box = (-16.796 -16.796 -16.796) to (16.796 16.796 16.796)
  1 by 1 by 2 MPI processor grid
  reading atoms ...
  32000 atoms
  reading velocities ...
  32000 velocities
  scanning bonds ...
  1 = max bonds/atom
  reading bonds ...
  31680 bonds
Finding 1-2 1-3 1-4 neighbors ...
  special bond factors lj:    0        1        1       
  special bond factors coul:  0        1        1       
     2 = max # of 1-2 neighbors
     2 = max # of special neighbors
  special bonds CPU = 0.019 seconds
  read_data CPU = 0.160 seconds
Replicating atoms ...
  orthogonal box = (-16.796 -16.796 -16.796) to (50.388 50.388 50.388)
  1 by 1 by 2 MPI processor grid
  256000 atoms
  253440 bonds
Finding 1-2 1-3 1-4 neighbors ...
  special bond factors lj:    0        1        1       
  special bond factors coul:  0        1        1       
     2 = max # of 1-2 neighbors
     2 = max # of special neighbors
  special bonds CPU = 0.035 seconds
  replicate CPU = 0.068 seconds
----------------------------------------------------------
Using INTEL Package without Coprocessor.
Compiler: Intel Classic C++ 20.21.5 / Intel(R) C++ g++ 9.3 mode
SIMD compiler directives: Enabled
Precision: double
----------------------------------------------------------
  generated 0 of 0 mixed pair_coeff terms from geometric mixing rule
Neighbor list info ...
  update every 1 steps, delay 1 steps, check yes
  max neighbors/atom: 2000, page size: 100000
  master list distance cutoff = 1.52
  ghost atom cutoff = 1.52
  binsize = 0.76, bins = 89 89 89
  1 neighbor lists, perpetual/occasional/extra = 1 0 0
  (1) pair lj/cut/intel, perpetual
      attributes: half, newton on, intel
      pair build: half/bin/newton/intel
      stencil: half/bin/3d
      bin: intel
Setting up Verlet run ...
  Unit style    : lj
  Current step  : 0
  Time step     : 0.012
WARNING: Communication cutoff 1.52 is shorter than a bond length based estimate of 1.855. This may lead to errors. (../comm.cpp:723)
Per MPI rank memory allocation (min/avg/max) = 1134 | 1134 | 1134 Mbytes
Step Temp E_pair E_mol TotEng Press 
       0   0.97027119   0.44484087    20.494523    22.394765    4.6721833 
     100   0.97136933   0.44363006    20.502968    22.403646    4.6810531 
Loop time of 7.21792 on 2 procs for 100 steps with 256000 atoms

Performance: 14364.241 tau/day, 13.854 timesteps/s
44.4% CPU use with 2 MPI tasks x 1 OpenMP threads

MPI task timing breakdown:
Section |  min time  |  avg time  |  max time  |%varavg| %total
---------------------------------------------------------------
Pair    | 0.84859    | 0.8757     | 0.90282    |   2.9 | 12.13
Bond    | 0.26068    | 0.26629    | 0.2719     |   1.1 |  3.69
Neigh   | 1.4183     | 1.4403     | 1.4623     |   1.8 | 19.95
Comm    | 2.5821     | 2.7759     | 2.9696     |  11.6 | 38.46
Output  | 0.00027855 | 0.00029399 | 0.00030942 |   0.0 |  0.00
Modify  | 1.0515     | 1.1398     | 1.2282     |   8.3 | 15.79
Other   |            | 0.7196     |            |       |  9.97

Nlocal:         128000 ave      128007 max      127993 min
Histogram: 1 0 0 0 0 0 0 0 0 1
Nghost:        24513.5 ave       24527 max       24500 min
Histogram: 1 0 0 0 0 0 0 0 0 1
Neighs:         749881 ave      749902 max      749860 min
Histogram: 1 0 0 0 0 0 0 0 0 1

Total # of neighbors = 1499762
Ave neighs/atom = 5.8584453
Ave special neighs/atom = 1.98
Neighbor list builds = 25
Dangerous builds = 0
Total wall time: 0:00:07
Intel(R) VTune(TM) Profiler 2022.2.0 collection completed successfully. Use the "aps --report /home/ubuntu/lammps/bench/aps_result_20220531" command to generate textual and HTML reports for the profiling session.
