LAMMPS (7 Jan 2022)
  using 1 OpenMP thread(s) per MPI task
Reading data file ...
  orthogonal box = (-16.796 -16.796 -16.796) to (16.796 16.796 16.796)
  4 by 4 by 4 MPI processor grid
  reading atoms ...
  32000 atoms
  reading velocities ...
  32000 velocities
  scanning bonds ...
  1 = max bonds/atom
  reading bonds ...
  31680 bonds
Finding 1-2 1-3 1-4 neighbors ...
  special bond factors lj:    0        1        1       
  special bond factors coul:  0        1        1       
     2 = max # of 1-2 neighbors
     2 = max # of special neighbors
  special bonds CPU = 0.204 seconds
  read_data CPU = 0.515 seconds
Replicating atoms ...
  orthogonal box = (-16.796 -16.796 -16.796) to (83.98 83.98 83.98)
  4 by 4 by 4 MPI processor grid
  864000 atoms
  855360 bonds
Finding 1-2 1-3 1-4 neighbors ...
  special bond factors lj:    0        1        1       
  special bond factors coul:  0        1        1       
     2 = max # of 1-2 neighbors
     2 = max # of special neighbors
  special bonds CPU = 0.070 seconds
  replicate CPU = 0.110 seconds
----------------------------------------------------------
Using INTEL Package without Coprocessor.
Compiler: Intel Classic C++ 20.21.5 / Intel(R) C++ g++ 9.3 mode
SIMD compiler directives: Enabled
Precision: single
----------------------------------------------------------
  generated 0 of 0 mixed pair_coeff terms from geometric mixing rule
Neighbor list info ...
  update every 1 steps, delay 1 steps, check yes
  max neighbors/atom: 2000, page size: 100000
  master list distance cutoff = 1.52
  ghost atom cutoff = 1.52
  binsize = 0.76, bins = 133 133 133
  1 neighbor lists, perpetual/occasional/extra = 1 0 0
  (1) pair lj/cut/intel, perpetual
      attributes: half, newton on, intel
      pair build: half/bin/newton/intel
      stencil: half/bin/3d
      bin: intel
Setting up Verlet run ...
  Unit style    : lj
  Current step  : 0
  Time step     : 0.012
WARNING: Communication cutoff 1.52 is shorter than a bond length based estimate of 1.855. This may lead to errors. (../comm.cpp:723)
Per MPI rank memory allocation (min/avg/max) = 122.5 | 122.8 | 123.3 Mbytes
Step Temp E_pair E_mol TotEng Press 
       0   0.97026852   0.44484084    20.494494    22.394736    4.6721844 
     100   0.97330904   0.44221013    20.499682    22.401854    4.6963109 
Loop time of 2.65302 on 64 procs for 100 steps with 864000 atoms

Performance: 39080.028 tau/day, 37.693 timesteps/s
92.3% CPU use with 64 MPI tasks x 1 OpenMP threads

MPI task timing breakdown:
Section |  min time  |  avg time  |  max time  |%varavg| %total
---------------------------------------------------------------
Pair    | 0.086856   | 0.092666   | 0.10531    |   2.0 |  3.49
Bond    | 0.0129     | 0.013821   | 0.016676   |   0.8 |  0.52
Neigh   | 0.49455    | 0.60516    | 0.70117    |  11.5 | 22.81
Comm    | 0.19888    | 0.58503    | 0.96374    |  41.1 | 22.05
Output  | 5.9359e-05 | 8.1662e-05 | 0.00011546 |   0.0 |  0.00
Modify  | 0.069123   | 0.081938   | 0.4067     |  15.9 |  3.09
Other   |            | 1.274      |            |       | 48.03

Nlocal:          13500 ave       13555 max       13460 min
Histogram: 7 7 9 9 11 4 4 7 4 2
Nghost:        5504.78 ave        5583 max        5452 min
Histogram: 5 10 9 6 12 12 1 5 3 1
Neighs:        79093.9 ave       79561 max       78525 min
Histogram: 2 3 5 8 9 8 12 6 7 4

Total # of neighbors = 5062007
Ave neighs/atom = 5.8588044
Ave special neighs/atom = 1.98
Neighbor list builds = 25
Dangerous builds = 0
Total wall time: 0:00:03
Intel(R) VTune(TM) Profiler 2022.2.0 collection completed successfully. Use the "aps --report /home/ubuntu/lammps/bench/aps_result_20220531" command to generate textual and HTML reports for the profiling session.
