LAMMPS (7 Jan 2022)
  using 1 OpenMP thread(s) per MPI task
Reading data file ...
  orthogonal box = (0 0 0) to (40 20 37.2886)
  4 by 4 by 4 MPI processor grid
  reading atoms ...
  32000 atoms
  reading velocities ...
  32000 velocities
  read_data CPU = 0.108 seconds
Replicating atoms ...
  orthogonal box = (0 0 0) to (80 40 37.292229)
  8 by 4 by 2 MPI processor grid
  128000 atoms
  replicate CPU = 0.029 seconds
3648 atoms in group bottom
124352 atoms in group active
  generated 0 of 1 mixed pair_coeff terms from geometric mixing rule
Neighbor list info ...
  update every 1 steps, delay 0 steps, check yes
  max neighbors/atom: 2000, page size: 100000
  master list distance cutoff = 1.1
  ghost atom cutoff = 1.1
  binsize = 0.55, bins = 146 73 68
  1 neighbor lists, perpetual/occasional/extra = 1 0 0
  (1) pair gran/hooke/history, perpetual
      attributes: half, newton off, size, history
      pair build: half/size/bin/newtoff
      stencil: full/bin/3d
      bin: standard
Setting up Verlet run ...
  Unit style    : lj
  Current step  : 0
  Time step     : 0.0001
Per MPI rank memory allocation (min/avg/max) = 10.18 | 10.18 | 10.18 Mbytes
Step Atoms KinEng c_1 Volume 
       0   128000    3136556.5    6404.5051    119335.13 
     100   128000    3137168.3    6284.3873    119338.83 
Loop time of 0.05662 on 64 procs for 100 steps with 128000 atoms

Performance: 15259.613 tau/day, 1766.159 timesteps/s
92.1% CPU use with 64 MPI tasks x 1 OpenMP threads

MPI task timing breakdown:
Section |  min time  |  avg time  |  max time  |%varavg| %total
---------------------------------------------------------------
Pair    | 0.0066749  | 0.0087479  | 0.010623   |   1.6 | 15.45
Neigh   | 0.0021465  | 0.0025474  | 0.0028171  |   0.6 |  4.50
Comm    | 0.0063444  | 0.011083   | 0.036783   |   8.9 | 19.57
Output  | 2.5424e-05 | 5.2721e-05 | 8.1298e-05 |   0.0 |  0.09
Modify  | 0.0031421  | 0.0037146  | 0.0040911  |   0.7 |  6.56
Other   |            | 0.03047    |            |       | 53.82

Nlocal:           2000 ave        2005 max        1997 min
Histogram: 16 0 32 0 0 0 0 0 0 16
Nghost:        1152.25 ave        1160 max        1146 min
Histogram: 32 0 0 0 0 0 0 16 0 16
Neighs:        7707.75 ave        7990 max        7415 min
Histogram: 32 0 0 0 0 0 0 0 0 32

Total # of neighbors = 493296
Ave neighs/atom = 3.853875
Neighbor list builds = 2
Dangerous builds = 0
Total wall time: 0:00:00
Intel(R) VTune(TM) Profiler 2022.2.0 collection completed successfully. Use the "aps --report /home/ubuntu/lammps/bench/aps_result_20220526" command to generate textual and HTML reports for the profiling session.
