LAMMPS (7 Jan 2022)
  using 1 OpenMP thread(s) per MPI task
Reading data file ...
  orthogonal box = (0 0 0) to (40 20 37.2886)
  4 by 4 by 4 MPI processor grid
  reading atoms ...
  32000 atoms
  reading velocities ...
  32000 velocities
  read_data CPU = 0.244 seconds
912 atoms in group bottom
31088 atoms in group active
  generated 0 of 1 mixed pair_coeff terms from geometric mixing rule
Neighbor list info ...
  update every 1 steps, delay 0 steps, check yes
  max neighbors/atom: 2000, page size: 100000
  master list distance cutoff = 1.1
  ghost atom cutoff = 1.1
  binsize = 0.55, bins = 73 37 68
  1 neighbor lists, perpetual/occasional/extra = 1 0 0
  (1) pair gran/hooke/history, perpetual
      attributes: half, newton off, size, history
      pair build: half/size/bin/newtoff
      stencil: full/bin/3d
      bin: standard
Setting up Verlet run ...
  Unit style    : lj
  Current step  : 0
  Time step     : 0.0001
Per MPI rank memory allocation (min/avg/max) = 10.04 | 10.04 | 10.05 Mbytes
Step Atoms KinEng c_1 Volume 
       0    32000    784139.13    1601.1263    29833.783 
     100    32000    784292.08    1571.0968    29834.707 
Loop time of 1.12134 on 64 procs for 100 steps with 32000 atoms

Performance: 770.504 tau/day, 89.179 timesteps/s
89.8% CPU use with 64 MPI tasks x 1 OpenMP threads

MPI task timing breakdown:
Section |  min time  |  avg time  |  max time  |%varavg| %total
---------------------------------------------------------------
Pair    | 0.0012407  | 0.0020386  | 0.0028051  |   1.0 |  0.18
Neigh   | 0.00054087 | 0.00065257 | 0.00077765 |   0.0 |  0.06
Comm    | 0.0050469  | 0.33305    | 1.1152     |  62.2 | 29.70
Output  | 1.9755e-05 | 4.4647e-05 | 7.1981e-05 |   0.0 |  0.00
Modify  | 0.00077406 | 0.00093364 | 0.0010992  |   0.0 |  0.08
Other   |            | 0.7846     |            |       | 69.97

Nlocal:            500 ave         518 max         486 min
Histogram: 8 8 12 4 8 0 8 4 4 8
Nghost:        535.625 ave         606 max         471 min
Histogram: 28 4 0 0 0 0 0 4 16 12
Neighs:        2054.62 ave        2262 max        1789 min
Histogram: 8 8 0 0 8 8 8 8 0 16

Total # of neighbors = 131496
Ave neighs/atom = 4.10925
Neighbor list builds = 2
Dangerous builds = 0
Total wall time: 0:00:01
Intel(R) VTune(TM) Profiler 2022.2.0 collection completed successfully. Use the "aps --report /home/ubuntu/lammps/bench/aps_result_20220531" command to generate textual and HTML reports for the profiling session.
