LAMMPS (7 Jan 2022)
  using 1 OpenMP thread(s) per MPI task
Reading data file ...
  orthogonal box = (0 0 0) to (40 20 37.2886)
  1 by 1 by 1 MPI processor grid
  reading atoms ...
  32000 atoms
  reading velocities ...
  32000 velocities
  read_data CPU = 0.120 seconds
912 atoms in group bottom
31088 atoms in group active
  generated 0 of 1 mixed pair_coeff terms from geometric mixing rule
Neighbor list info ...
  update every 1 steps, delay 0 steps, check yes
  max neighbors/atom: 2000, page size: 100000
  master list distance cutoff = 1.1
  ghost atom cutoff = 1.1
  binsize = 0.55, bins = 73 37 68
  1 neighbor lists, perpetual/occasional/extra = 1 0 0
  (1) pair gran/hooke/history, perpetual
      attributes: half, newton off, size, history
      pair build: half/size/bin/newtoff
      stencil: full/bin/3d
      bin: standard
Setting up Verlet run ...
  Unit style    : lj
  Current step  : 0
  Time step     : 0.0001
Per MPI rank memory allocation (min/avg/max) = 23.37 | 23.37 | 23.37 Mbytes
Step Atoms KinEng c_1 Volume 
       0    32000    784139.13    1601.1263    29833.783 
     100    32000    784292.08    1571.0968    29834.707 
     200    32000    784422.71    1573.8634     29836.23 
     300    32000    784563.48    1580.4742    29837.727 
     400    32000    784708.17    1572.2381     29839.15 
     500    32000    784831.77    1564.0479    29840.694 
     600    32000    784971.37    1564.4511    29842.232 
     700    32000     785128.6    1552.4596    29843.695 
     800    32000    785290.26    1555.2209    29845.083 
     900    32000    785460.68    1545.8818    29846.397 
    1000    32000    785572.21    1539.8672    29847.635 
    1100    32000    785702.57    1533.8018    29848.799 
    1200    32000    785822.06    1545.9335    29849.888 
    1300    32000    785929.63    1549.9353    29850.902 
    1400    32000    786011.56    1552.8199    29851.841 
    1500    32000    786107.94    1566.1477    29852.706 
    1600    32000    786190.87    1573.3323    29853.496 
    1700    32000     786268.8    1592.7949    29854.211 
    1800    32000    786324.94    1606.0429    29854.646 
    1900    32000    786375.84    1614.3405    29855.236 
    2000    32000    786433.31    1618.8656    29855.751 
    2100    32000    786487.22    1636.6881    29856.192 
    2200    32000    786552.82    1640.6592    29856.558 
    2300    32000    786614.66    1639.1746    29856.849 
    2400    32000    786690.16    1633.1798    29857.065 
    2500    32000     786750.2    1631.7232    29857.206 
    2600    32000    786796.48    1639.3131    29857.273 
    2700    32000    786838.14    1646.8582    29857.318 
    2800    32000    786859.79    1647.0072    29857.485 
    2900    32000    786892.18    1653.0852    29857.576 
    3000    32000    786908.89    1658.7558    29857.593 
    3100    32000    786943.81    1667.9081    29857.535 
    3200    32000     786988.3     1666.302    29857.403 
    3300    32000    787052.93     1672.404    29857.195 
    3400    32000     787120.4    1667.0349    29856.916 
    3500    32000    787195.83    1665.4056    29856.571 
    3600    32000    787277.83    1661.0704    29856.156 
    3700    32000    787335.29    1660.3358    29855.664 
    3800    32000     787380.2    1656.7247    29855.089 
    3900    32000    787417.88    1660.4145    29854.664 
    4000    32000    787467.42    1656.9145    29854.764 
    4100    32000    787501.01    1652.3421    29855.098 
    4200    32000    787519.14    1657.2157    29855.357 
    4300    32000    787534.45    1660.3413    29855.541 
    4400    32000    787551.24    1658.3933    29855.651 
    4500    32000    787544.32    1672.7128    29855.686 
    4600    32000    787543.55    1680.4106    29855.646 
    4700    32000    787562.72    1685.8242    29855.531 
    4800    32000    787563.75    1701.7038    29855.342 
    4900    32000    787582.13    1709.6904    29855.077 
    5000    32000     787621.1    1704.1987    29854.738 
    5100    32000     787658.9    1702.9206    29854.324 
    5200    32000    787683.59    1709.7412    29853.835 
    5300    32000    787730.89    1712.5958    29853.272 
    5400    32000    787773.11    1721.1348    29852.647 
    5500    32000    787817.58    1723.7682    29851.942 
    5600    32000    787874.09    1726.9227    29851.156 
    5700    32000     787925.3    1723.9476    29850.296 
    5800    32000    787979.16    1728.0838     29849.68 
    5900    32000       788047     1728.623    29848.867 
    6000    32000    788124.66     1721.938    29848.557 
    6100    32000    788197.22    1720.8626    29848.172 
    6200    32000     788256.4    1726.0434    29847.711 
    6300    32000    788321.52     1718.083    29847.177 
    6400    32000    788385.23    1710.2493    29846.567 
    6500    32000    788465.27    1708.0877    29845.882 
    6600    32000    788545.57    1708.5275    29845.123 
    6700    32000     788641.1    1701.2069    29844.289 
    6800    32000    788729.02    1691.2893     29843.38 
    6900    32000     788838.7    1680.2153    29842.748 
    7000    32000    788941.77    1660.2681    29842.128 
    7100    32000    789022.36    1655.0887    29841.432 
    7200    32000    789099.43    1658.2485    29840.662 
    7300    32000    789174.95    1655.8193    29839.817 
    7400    32000     789264.2     1650.277    29838.897 
    7500    32000    789322.71    1643.0941    29838.243 
    7600    32000    789370.52     1645.943    29837.198 
    7700    32000    789410.71    1655.5368    29836.079 
    7800    32000    789454.13    1652.4066    29834.885 
    7900    32000    789498.14    1660.8508    29833.616 
    8000    32000    789529.29     1654.419    29832.272 
    8100    32000    789558.46    1657.6831    29830.854 
    8200    32000    789581.57    1659.4522     29829.36 
    8300    32000    789596.21    1668.7044    29827.792 
    8400    32000    789619.87    1665.0904    29826.149 
    8500    32000    789636.52    1658.8872    29824.432 
    8600    32000    789652.22    1661.6541    29822.639 
    8700    32000    789655.38    1669.4264     29820.79 
    8800    32000    789656.71    1680.9324    29818.907 
    8900    32000    789654.49    1683.7126    29816.953 
    9000    32000    789638.15    1691.3296    29815.014 
    9100    32000    789611.82    1695.5057     29813.41 
    9200    32000    789581.96     1701.646    29811.735 
    9300    32000    789538.94    1714.6755    29809.991 
    9400    32000    789496.47    1722.6672    29808.175 
    9500    32000    789436.47    1734.0599    29806.289 
    9600    32000    789374.83     1731.338    29804.333 
    9700    32000     789291.8    1737.4385    29803.694 
    9800    32000     789213.4     1751.918    29804.165 
    9900    32000    789156.31    1757.7847    29804.566 
   10000    32000    789107.97    1761.6086    29804.905 
Loop time of 27.9701 on 1 procs for 10000 steps with 32000 atoms

Performance: 3089.014 tau/day, 357.525 timesteps/s
100.0% CPU use with 1 MPI tasks x 1 OpenMP threads

MPI task timing breakdown:
Section |  min time  |  avg time  |  max time  |%varavg| %total
---------------------------------------------------------------
Pair    | 15.12      | 15.12      | 15.12      |   0.0 | 54.06
Neigh   | 4.6445     | 4.6445     | 4.6445     |   0.0 | 16.61
Comm    | 1.0616     | 1.0616     | 1.0616     |   0.0 |  3.80
Output  | 0.012268   | 0.012268   | 0.012268   |   0.0 |  0.04
Modify  | 5.7441     | 5.7441     | 5.7441     |   0.0 | 20.54
Other   |            | 1.388      |            |       |  4.96

Nlocal:          32000 ave       32000 max       32000 min
Histogram: 1 0 0 0 0 0 0 0 0 0
Nghost:           5472 ave        5472 max        5472 min
Histogram: 1 0 0 0 0 0 0 0 0 0
Neighs:         115177 ave      115177 max      115177 min
Histogram: 1 0 0 0 0 0 0 0 0 0

Total # of neighbors = 115177
Ave neighs/atom = 3.5992813
Neighbor list builds = 295
Dangerous builds = 0
Total wall time: 0:00:28
Intel(R) VTune(TM) Profiler 2022.2.0 collection completed successfully. Use the "aps --report /home/ubuntu/lammps/bench/aps_result_20220703" command to generate textual and HTML reports for the profiling session.
