LAMMPS (7 Jan 2022)
  using 1 OpenMP thread(s) per MPI task
New timer settings: style=full  mode=nosync  timeout=off
Reading data file ...
  orthogonal box = (0 0 0) to (40 20 37.2886)
  2 by 2 by 2 MPI processor grid
  reading atoms ...
  32000 atoms
  reading velocities ...
  32000 velocities
  read_data CPU = 0.103 seconds
912 atoms in group bottom
31088 atoms in group active
  generated 0 of 1 mixed pair_coeff terms from geometric mixing rule
Neighbor list info ...
  update every 1 steps, delay 0 steps, check yes
  max neighbors/atom: 2000, page size: 100000
  master list distance cutoff = 1.1
  ghost atom cutoff = 1.1
  binsize = 0.55, bins = 73 37 68
  1 neighbor lists, perpetual/occasional/extra = 1 0 0
  (1) pair gran/hooke/history, perpetual
      attributes: half, newton off, size, history
      pair build: half/size/bin/newtoff
      stencil: full/bin/3d
      bin: standard
Setting up Verlet run ...
  Unit style    : lj
  Current step  : 0
  Time step     : 0.0001
Per MPI rank memory allocation (min/avg/max) = 10.39 | 10.39 | 10.39 Mbytes
Step Atoms KinEng c_1 Volume 
       0    32000    784139.13    1601.1263    29833.783 
     100    32000    784292.08    1571.0968    29834.707 
Loop time of 0.0525181 on 8 procs for 100 steps with 32000 atoms

Performance: 16451.480 tau/day, 1904.107 timesteps/s
95.8% CPU use with 8 MPI tasks x 1 OpenMP threads

MPI task timing breakdown:
Section |  min time  |  avg time  |  max time  |%varavg|  %CPU | %total
-----------------------------------------------------------------------
Pair    | 0.020654   | 0.022754   | 0.025025   |   1.3 |  95.2 | 43.33
Neigh   | 0.0054352  | 0.0055023  | 0.0055888  |   0.1 | 100.0 | 10.48
Comm    | 0.0093541  | 0.0097439  | 0.010074   |   0.3 |  94.4 | 18.55
Output  | 4.8366e-05 | 6.8269e-05 | 8.6475e-05 |   0.0 |  99.4 |  0.13
Modify  | 0.0084887  | 0.0086471  | 0.0091203  |   0.2 |  95.8 | 16.46
Other   |            | 0.005803   |            |       |       | 11.05

Nlocal:           4000 ave        4004 max        3996 min
Histogram: 4 0 0 0 0 0 0 0 0 4
Nghost:         1736.5 ave        1738 max        1735 min
Histogram: 4 0 0 0 0 0 0 0 0 4
Neighs:        15091.5 ave       15604 max       14579 min
Histogram: 4 0 0 0 0 0 0 0 0 4

Total # of neighbors = 120732
Ave neighs/atom = 3.772875
Neighbor list builds = 2
Dangerous builds = 0
Total wall time: 0:00:00
Intel(R) VTune(TM) Profiler 2022.2.0 collection completed successfully. Use the "aps --report /home/ubuntu/lammps/bench/aps_result_20220519" command to generate textual and HTML reports for the profiling session.
