LAMMPS (7 Jan 2022)
  using 1 OpenMP thread(s) per MPI task
Reading data file ...
  orthogonal box = (-16.796 -16.796 -16.796) to (16.796 16.796 16.796)
  1 by 1 by 1 MPI processor grid
  reading atoms ...
  32000 atoms
  reading velocities ...
  32000 velocities
  scanning bonds ...
  1 = max bonds/atom
  reading bonds ...
  31680 bonds
Finding 1-2 1-3 1-4 neighbors ...
  special bond factors lj:    0        1        1       
  special bond factors coul:  0        1        1       
     2 = max # of 1-2 neighbors
     2 = max # of special neighbors
  special bonds CPU = 0.006 seconds
  read_data CPU = 0.175 seconds
Replicating atoms ...
  orthogonal box = (-16.796 -16.796 -16.796) to (83.98 83.98 83.98)
  1 by 1 by 1 MPI processor grid
  864000 atoms
  855360 bonds
Finding 1-2 1-3 1-4 neighbors ...
  special bond factors lj:    0        1        1       
  special bond factors coul:  0        1        1       
     2 = max # of 1-2 neighbors
     2 = max # of special neighbors
  special bonds CPU = 0.259 seconds
  replicate CPU = 0.442 seconds
----------------------------------------------------------
Using INTEL Package without Coprocessor.
Compiler: Intel Classic C++ 20.21.5 / Intel(R) C++ g++ 9.3 mode
SIMD compiler directives: Enabled
Precision: single
----------------------------------------------------------
  generated 0 of 0 mixed pair_coeff terms from geometric mixing rule
Neighbor list info ...
  update every 1 steps, delay 1 steps, check yes
  max neighbors/atom: 2000, page size: 100000
  master list distance cutoff = 1.52
  ghost atom cutoff = 1.52
  binsize = 0.76, bins = 133 133 133
  1 neighbor lists, perpetual/occasional/extra = 1 0 0
  (1) pair lj/cut/intel, perpetual
      attributes: half, newton on, intel
      pair build: half/bin/newton/intel
      stencil: half/bin/3d
      bin: intel
Setting up Verlet run ...
  Unit style    : lj
  Current step  : 0
  Time step     : 0.012
WARNING: Communication cutoff 1.52 is shorter than a bond length based estimate of 1.855. This may lead to errors. (../comm.cpp:723)
Per MPI rank memory allocation (min/avg/max) = 7563 | 7563 | 7563 Mbytes
Step Temp E_pair E_mol TotEng Press 
       0   0.97026852   0.44472541    20.428944    22.329071    4.6721851 
     100   0.97355568   0.44144321     20.43659    22.338365    4.6688225 
Loop time of 41.3478 on 1 procs for 100 steps with 864000 atoms

Performance: 2507.511 tau/day, 2.419 timesteps/s
50.0% CPU use with 1 MPI tasks x 1 OpenMP threads

MPI task timing breakdown:
Section |  min time  |  avg time  |  max time  |%varavg| %total
---------------------------------------------------------------
Pair    | 10.428     | 10.428     | 10.428     |   0.0 | 25.22
Bond    | 1.8997     | 1.8997     | 1.8997     |   0.0 |  4.59
Neigh   | 10.126     | 10.126     | 10.126     |   0.0 | 24.49
Comm    | 8.5112     | 8.5112     | 8.5112     |   0.0 | 20.58
Output  | 0.018207   | 0.018207   | 0.018207   |   0.0 |  0.04
Modify  | 9.0762     | 9.0762     | 9.0762     |   0.0 | 21.95
Other   |            | 1.289      |            |       |  3.12

Nlocal:         864000 ave      864000 max      864000 min
Histogram: 1 0 0 0 0 0 0 0 0 0
Nghost:          80770 ave       80770 max       80770 min
Histogram: 1 0 0 0 0 0 0 0 0 0
Neighs:    5.06214e+06 ave 5.06214e+06 max 5.06214e+06 min
Histogram: 1 0 0 0 0 0 0 0 0 0

Total # of neighbors = 5062135
Ave neighs/atom = 5.8589525
Ave special neighs/atom = 1.98
Neighbor list builds = 26
Dangerous builds = 0
Total wall time: 0:00:43
Intel(R) VTune(TM) Profiler 2022.2.0 collection completed successfully. Use the "aps --report /home/ubuntu/lammps/bench/aps_result_20220531" command to generate textual and HTML reports for the profiling session.
