LAMMPS (7 Jan 2022)
  using 1 OpenMP thread(s) per MPI task
Reading data file ...
  orthogonal box = (0 0 0) to (40 20 37.2886)
  1 by 1 by 1 MPI processor grid
  reading atoms ...
  32000 atoms
  reading velocities ...
  32000 velocities
  read_data CPU = 0.127 seconds
Replicating atoms ...
  orthogonal box = (0 0 0) to (80 40 37.292229)
  1 by 1 by 1 MPI processor grid
  128000 atoms
  replicate CPU = 0.021 seconds
3648 atoms in group bottom
124352 atoms in group active
  generated 0 of 1 mixed pair_coeff terms from geometric mixing rule
Neighbor list info ...
  update every 1 steps, delay 0 steps, check yes
  max neighbors/atom: 2000, page size: 100000
  master list distance cutoff = 1.1
  ghost atom cutoff = 1.1
  binsize = 0.55, bins = 146 73 68
  1 neighbor lists, perpetual/occasional/extra = 1 0 0
  (1) pair gran/hooke/history, perpetual
      attributes: half, newton off, size, history
      pair build: half/size/bin/newtoff
      stencil: full/bin/3d
      bin: standard
Setting up Verlet run ...
  Unit style    : lj
  Current step  : 0
  Time step     : 0.0001
Per MPI rank memory allocation (min/avg/max) = 62.94 | 62.94 | 62.94 Mbytes
Step Atoms KinEng c_1 Volume 
       0   128000    3136556.5    6404.5051    119335.13 
     100   128000    3137168.3    6284.3873    119338.83 
Loop time of 1.10025 on 1 procs for 100 steps with 128000 atoms

Performance: 785.279 tau/day, 90.889 timesteps/s
99.6% CPU use with 1 MPI tasks x 1 OpenMP threads

MPI task timing breakdown:
Section |  min time  |  avg time  |  max time  |%varavg| %total
---------------------------------------------------------------
Pair    | 0.5527     | 0.5527     | 0.5527     |   0.0 | 50.23
Neigh   | 0.16064    | 0.16064    | 0.16064    |   0.0 | 14.60
Comm    | 0.028979   | 0.028979   | 0.028979   |   0.0 |  2.63
Output  | 0.00055323 | 0.00055323 | 0.00055323 |   0.0 |  0.05
Modify  | 0.28257    | 0.28257    | 0.28257    |   0.0 | 25.68
Other   |            | 0.07482    |            |       |  6.80

Nlocal:         128000 ave      128000 max      128000 min
Histogram: 1 0 0 0 0 0 0 0 0 0
Nghost:          10733 ave       10733 max       10733 min
Histogram: 1 0 0 0 0 0 0 0 0 0
Neighs:         452161 ave      452161 max      452161 min
Histogram: 1 0 0 0 0 0 0 0 0 0

Total # of neighbors = 452161
Ave neighs/atom = 3.5325078
Neighbor list builds = 2
Dangerous builds = 0
Total wall time: 0:00:01
Intel(R) VTune(TM) Profiler 2022.2.0 collection completed successfully. Use the "aps --report /home/ubuntu/lammps/bench/aps_result_20220601" command to generate textual and HTML reports for the profiling session.
