LAMMPS (7 Jan 2022)
  using 1 OpenMP thread(s) per MPI task
Reading data file ...
  orthogonal box = (0 0 0) to (40 20 37.2886)
  4 by 2 by 4 MPI processor grid
  reading atoms ...
  32000 atoms
  reading velocities ...
  32000 velocities
  read_data CPU = 0.094 seconds
Replicating atoms ...
  orthogonal box = (0 0 0) to (120 60 37.292229)
  4 by 4 by 2 MPI processor grid
  288000 atoms
  replicate CPU = 0.020 seconds
8208 atoms in group bottom
279792 atoms in group active
  generated 0 of 1 mixed pair_coeff terms from geometric mixing rule
Neighbor list info ...
  update every 1 steps, delay 0 steps, check yes
  max neighbors/atom: 2000, page size: 100000
  master list distance cutoff = 1.1
  ghost atom cutoff = 1.1
  binsize = 0.55, bins = 219 110 68
  1 neighbor lists, perpetual/occasional/extra = 1 0 0
  (1) pair gran/hooke/history, perpetual
      attributes: half, newton off, size, history
      pair build: half/size/bin/newtoff
      stencil: full/bin/3d
      bin: standard
Setting up Verlet run ...
  Unit style    : lj
  Current step  : 0
  Time step     : 0.0001
Per MPI rank memory allocation (min/avg/max) = 10.76 | 10.76 | 10.76 Mbytes
Step Atoms KinEng c_1 Volume 
       0   288000    7057252.2    14410.137    268504.05 
     100   288000    7058628.7    14139.871    268512.37 
     200   288000    7059804.4    14164.771    268526.08 
     300   288000    7061071.3    14224.268    268539.55 
     400   288000    7062373.5    14150.143    268552.35 
     500   288000    7063485.9    14076.431    268566.25 
     600   288000    7064742.3     14080.06    268580.09 
     700   288000    7066157.4    13972.136    268593.26 
     800   288000    7067612.3    13996.988    268605.75 
     900   288000    7069146.1    13912.936    268617.57 
    1000   288000    7070149.9    13858.805    268628.72 
    1100   288000    7071323.1    13804.216    268639.19 
    1200   288000    7072398.5    13913.402    268648.99 
    1300   288000    7073366.7    13949.418    268658.12 
    1400   288000    7074104.1    13975.379    268666.58 
    1500   288000    7074971.5    14095.327    268674.36 
    1600   288000    7075717.8    14160.004    268681.46 
    1700   288000    7076419.2    14335.129     268687.9 
    1800   288000    7076924.5    14454.308    268691.81 
    1900   288000      7077383    14528.877    268697.13 
    2000   288000    7077900.2    14569.613    268701.76 
    2100   288000    7078385.6    14730.122    268705.73 
    2200   288000      7078974    14766.176    268709.02 
    2300   288000    7079530.6    14751.538    268711.64 
    2400   288000    7080208.1    14702.578    268713.59 
    2500   288000    7080752.1    14691.212    268714.86 
    2600   288000    7081159.6     14754.46    268715.46 
    2700   288000    7081505.6    14844.299    268715.87 
    2800   288000    7081708.8    14863.265    268717.37 
    2900   288000    7081971.1    14888.252    268718.19 
    3000   288000      7082086    14913.821    268718.34 
    3100   288000    7082373.5    14998.259    268717.82 
    3200   288000    7082691.3    15086.847    268716.63 
    3300   288000    7083315.3    15065.113    268714.76 
    3400   288000    7083949.6    15017.605    268712.25 
    3500   288000    7084599.5    15001.866    268709.14 
    3600   288000    7085211.7    14969.152     268705.4 
    3700   288000    7085795.6    14924.117    268701.03 
    3800   288000    7086263.5    14927.757    268695.86 
    3900   288000    7086657.2    14976.562    268690.02 
    4000   288000    7087067.1    14938.905    268692.29 
    4100   288000      7087329    14932.184    268695.69 
    4200   288000    7087487.3      14941.8    268698.42 
    4300   288000    7087630.8    14903.769    268700.48 
    4400   288000    7087731.9    14922.654    268701.86 
    4500   288000    7087809.8    14961.209    268702.57 
    4600   288000    7087885.4    15044.809    268702.61 
    4700   288000    7088022.3    15095.685    268701.97 
    4800   288000      7088132    15112.582    268700.66 
    4900   288000    7088333.3    15176.201    268698.68 
    5000   288000      7088532    15249.562    268696.02 
    5100   288000    7088745.5    15359.944    268692.69 
    5200   288000    7089061.1    15396.433    268688.69 
    5300   288000    7089365.1    15498.354    268684.02 
    5400   288000    7089740.6    15583.822    268678.78 
    5500   288000    7090223.5    15604.255    268672.83 
    5600   288000    7090698.4     15608.63    268666.16 
    5700   288000    7091169.4    15588.433    268659.03 
    5800   288000      7091730    15560.032    268651.27 
    5900   288000    7092261.8    15561.492    268642.88 
    6000   288000    7092844.9    15488.825    268634.04 
    6100   288000    7093484.2    15458.755    268629.57 
    6200   288000    7094107.2    15432.675    268627.55 
    6300   288000    7094745.9    15411.154    268628.21 
    6400   288000    7095414.7    15345.729    268628.24 
    6500   288000    7096107.1    15310.366    268627.64 
    6600   288000    7096881.2    15239.352     268626.4 
    6700   288000      7097695     15141.12    268624.53 
    6800   288000    7098536.5    15081.782       268622 
    6900   288000    7099364.4    15048.732    268618.74 
    7000   288000    7100189.7    14979.274    268614.82 
    7100   288000    7100991.8    14943.892    268610.22 
    7200   288000    7101757.6    14898.799    268604.95 
    7300   288000    7102486.8    14884.225       268599 
    7400   288000    7103164.6    14838.661    268592.39 
    7500   288000    7103750.6    14849.105    268585.09 
    7600   288000      7104302    14837.692    268577.29 
    7700   288000      7104821      14857.2    268568.93 
    7800   288000    7105288.6    14888.619    268559.93 
    7900   288000    7105679.1    14884.627     268550.3 
    8000   288000    7106020.7    14927.939    268540.04 
    8100   288000    7106451.3    14908.297    268529.14 
    8200   288000    7106802.2     14889.75    268517.61 
    8300   288000    7107110.8    14906.351    268505.44 
    8400   288000    7107387.6     14940.65    268492.64 
    8500   288000    7107644.2    14988.807     268479.2 
    8600   288000    7107867.2    15014.537    268465.13 
    8700   288000      7107996    15061.195    268450.43 
    8800   288000    7108074.5    15122.073    268435.09 
    8900   288000    7108098.4    15174.539    268419.12 
    9000   288000    7108011.7    15236.569    268402.51 
    9100   288000    7107875.7    15285.253    268385.27 
    9200   288000    7107693.4    15331.247     268367.4 
    9300   288000    7107450.4    15375.221    268348.89 
    9400   288000    7107097.8    15428.323    268329.74 
    9500   288000    7106707.9    15502.892    268313.67 
    9600   288000    7106355.5    15563.905    268303.86 
    9700   288000    7106049.6    15567.614    268293.42 
    9800   288000    7105858.7    15567.117    268297.26 
    9900   288000    7105711.8    15583.611    268325.01 
   10000   288000    7105565.4    15572.666    268352.12 
Loop time of 10.4818 on 32 procs for 10000 steps with 288000 atoms

Performance: 8242.868 tau/day, 954.036 timesteps/s
99.5% CPU use with 32 MPI tasks x 1 OpenMP threads

MPI task timing breakdown:
Section |  min time  |  avg time  |  max time  |%varavg| %total
---------------------------------------------------------------
Pair    | 3.9991     | 4.7694     | 5.4225     |  22.4 | 45.50
Neigh   | 1.4894     | 1.5907     | 1.6467     |   2.7 | 15.18
Comm    | 0.93138    | 0.99965    | 1.0783     |   4.3 |  9.54
Output  | 0.01075    | 0.017275   | 0.026037   |   3.5 |  0.16
Modify  | 1.5738     | 1.7267     | 1.7949     |   3.9 | 16.47
Other   |            | 1.378      |            |       | 13.15

Nlocal:           9000 ave        9045 max        8932 min
Histogram: 2 2 0 5 2 3 5 3 7 3
Nghost:        2739.66 ave        2777 max        2710 min
Histogram: 2 5 5 2 3 7 5 1 1 1
Neighs:        33201.9 ave       34101 max       32311 min
Histogram: 6 9 1 0 0 0 0 3 5 8

Total # of neighbors = 1062461
Ave neighs/atom = 3.6891007
Neighbor list builds = 297
Dangerous builds = 0
Total wall time: 0:00:10
Intel(R) VTune(TM) Profiler 2022.2.0 collection completed successfully. Use the "aps --report /home/ubuntu/lammps/bench/aps_result_20220703" command to generate textual and HTML reports for the profiling session.
