LAMMPS (7 Jan 2022)
  using 1 OpenMP thread(s) per MPI task
New timer settings: style=full  mode=nosync  timeout=off
Reading data file ...
  orthogonal box = (-16.796 -16.796 -16.796) to (16.796 16.796 16.796)
  2 by 2 by 2 MPI processor grid
  reading atoms ...
  32000 atoms
  reading velocities ...
  32000 velocities
  scanning bonds ...
  1 = max bonds/atom
  reading bonds ...
  31680 bonds
Finding 1-2 1-3 1-4 neighbors ...
  special bond factors lj:    0        1        1       
  special bond factors coul:  0        1        1       
     2 = max # of 1-2 neighbors
     2 = max # of special neighbors
  special bonds CPU = 0.002 seconds
  read_data CPU = 0.116 seconds
Replicating atoms ...
  orthogonal box = (-16.796 -16.796 -16.796) to (83.98 83.98 83.98)
  2 by 2 by 2 MPI processor grid
  864000 atoms
  855360 bonds
Finding 1-2 1-3 1-4 neighbors ...
  special bond factors lj:    0        1        1       
  special bond factors coul:  0        1        1       
     2 = max # of 1-2 neighbors
     2 = max # of special neighbors
  special bonds CPU = 0.032 seconds
  replicate CPU = 0.070 seconds
----------------------------------------------------------
Using INTEL Package without Coprocessor.
Compiler: Intel Classic C++ 20.21.5 / Intel(R) C++ g++ 9.3 mode
SIMD compiler directives: Enabled
Precision: mixed
----------------------------------------------------------
  generated 0 of 0 mixed pair_coeff terms from geometric mixing rule
Neighbor list info ...
  update every 1 steps, delay 1 steps, check yes
  max neighbors/atom: 2000, page size: 100000
  master list distance cutoff = 1.52
  ghost atom cutoff = 1.52
  binsize = 0.76, bins = 133 133 133
  1 neighbor lists, perpetual/occasional/extra = 1 0 0
  (1) pair lj/cut/intel, perpetual
      attributes: half, newton on, intel
      pair build: half/bin/newton/intel
      stencil: half/bin/3d
      bin: intel
Setting up Verlet run ...
  Unit style    : lj
  Current step  : 0
  Time step     : 0.012
WARNING: Communication cutoff 1.52 is shorter than a bond length based estimate of 1.855. This may lead to errors. (../comm.cpp:723)
Per MPI rank memory allocation (min/avg/max) = 952.6 | 953.2 | 953.9 Mbytes
Step Temp E_pair E_mol TotEng Press 
       0   0.97026852   0.44484092    20.494523    22.394765    4.6721839 
     100   0.97375854   0.44201485    20.501708    22.404359    4.6845897 
Loop time of 3.36505 on 8 procs for 100 steps with 864000 atoms

Performance: 30810.850 tau/day, 29.717 timesteps/s
98.1% CPU use with 8 MPI tasks x 1 OpenMP threads

MPI task timing breakdown:
Section |  min time  |  avg time  |  max time  |%varavg|  %CPU | %total
-----------------------------------------------------------------------
Pair    | 0.83844    | 0.86753    | 0.906      |   2.7 |  99.4 | 25.78
Bond    | 0.17035    | 0.1762     | 0.18225    |   1.0 |  99.7 |  5.24
Neigh   | 0.73505    | 0.73676    | 0.73852    |   0.2 |  99.5 | 21.89
Comm    | 0.67515    | 0.72496    | 0.7619     |   3.6 |  95.0 | 21.54
Output  | 0.0003027  | 0.00051754 | 0.00057069 |   0.0 | 100.0 |  0.02
Modify  | 0.6695     | 0.69868    | 0.73934    |   2.8 |  97.6 | 20.76
Other   |            | 0.1604     |            |       |       |  4.77

Nlocal:         108000 ave      108160 max      107831 min
Histogram: 1 1 1 1 0 0 1 1 0 2
Nghost:          20775 ave       20833 max       20692 min
Histogram: 1 0 0 0 3 0 1 0 2 1
Neighs:         632765 ave      634891 max      631114 min
Histogram: 1 2 1 0 0 0 2 1 0 1

Total # of neighbors = 5062119
Ave neighs/atom = 5.858934
Ave special neighs/atom = 1.98
Neighbor list builds = 25
Dangerous builds = 0
Total wall time: 0:00:03
Intel(R) VTune(TM) Profiler 2022.2.0 collection completed successfully. Use the "aps --report /home/ubuntu/lammps/bench/aps_result_20220519" command to generate textual and HTML reports for the profiling session.
