LAMMPS (7 Jan 2022)
  using 1 OpenMP thread(s) per MPI task
Reading data file ...
  orthogonal box = (-16.796 -16.796 -16.796) to (16.796 16.796 16.796)
  2 by 2 by 2 MPI processor grid
  reading atoms ...
  32000 atoms
  reading velocities ...
  32000 velocities
  scanning bonds ...
  1 = max bonds/atom
  reading bonds ...
  31680 bonds
Finding 1-2 1-3 1-4 neighbors ...
  special bond factors lj:    0        1        1       
  special bond factors coul:  0        1        1       
     2 = max # of 1-2 neighbors
     2 = max # of special neighbors
  special bonds CPU = 0.002 seconds
  read_data CPU = 0.120 seconds
Replicating atoms ...
  orthogonal box = (-16.796 -16.796 -16.796) to (50.388 50.388 50.388)
  2 by 2 by 2 MPI processor grid
  256000 atoms
  253440 bonds
Finding 1-2 1-3 1-4 neighbors ...
  special bond factors lj:    0        1        1       
  special bond factors coul:  0        1        1       
     2 = max # of 1-2 neighbors
     2 = max # of special neighbors
  special bonds CPU = 0.008 seconds
  replicate CPU = 0.023 seconds
----------------------------------------------------------
Using INTEL Package without Coprocessor.
Compiler: Intel Classic C++ 20.21.5 / Intel(R) C++ g++ 9.3 mode
SIMD compiler directives: Enabled
Precision: mixed
----------------------------------------------------------
  generated 0 of 0 mixed pair_coeff terms from geometric mixing rule
Neighbor list info ...
  update every 1 steps, delay 1 steps, check yes
  max neighbors/atom: 2000, page size: 100000
  master list distance cutoff = 1.52
  ghost atom cutoff = 1.52
  binsize = 0.76, bins = 89 89 89
  1 neighbor lists, perpetual/occasional/extra = 1 0 0
  (1) pair lj/cut/intel, perpetual
      attributes: half, newton on, intel
      pair build: half/bin/newton/intel
      stencil: half/bin/3d
      bin: intel
Setting up Verlet run ...
  Unit style    : lj
  Current step  : 0
  Time step     : 0.012
WARNING: Communication cutoff 1.52 is shorter than a bond length based estimate of 1.855. This may lead to errors. (../comm.cpp:723)
Per MPI rank memory allocation (min/avg/max) = 285.7 | 285.7 | 285.7 Mbytes
Step Temp E_pair E_mol TotEng Press 
       0   0.97027119   0.44484088    20.494523    22.394765    4.6721834 
     100   0.97392885   0.44177693     20.50213    22.404795    4.6718363 
     200   0.97719396    0.4432429    20.502864    22.411892    4.7207173 
     300   0.98047025   0.44299743    20.506637    22.420334    4.6904939 
     400   0.98295725   0.44396354    20.505704    22.424098    4.7060574 
     500   0.98485301   0.44764796    20.506784    22.431706    4.7539731 
     600   0.98523569   0.44940092    20.508932    22.436181    4.7566671 
     700   0.99038599   0.44706487    20.509861    22.442499    4.7511255 
     800   0.98954763   0.45008378    20.510957    22.445356    4.7733833 
     900   0.99054614   0.45056498    20.512474    22.448852    4.7454514 
    1000   0.99294573   0.45154428    20.510624    22.451581    4.7543861 
    1100    0.9957861   0.45131172    20.510248    22.455233    4.7843441 
    1200   0.99589868   0.45346979      20.5126    22.459912    4.7966132 
    1300   0.99574035   0.45224623    20.515302    22.461153    4.7611124 
    1400   0.99614303   0.45223973    20.517052      22.4635    4.7917259 
    1500   0.99766663   0.45177037    20.514936    22.463201    4.7730633 
    1600   0.99950457   0.45403159    20.512551    22.465834    4.7886809 
    1700   0.99921332    0.4527808    20.514645     22.46624    4.7761451 
    1800     1.000903   0.45215977    20.515612    22.469121     4.772341 
    1900    1.0003777   0.45473536    20.515115    22.470411    4.8425135 
    2000    1.0020853   0.45383786    20.515057    22.472017    4.8104771 
    2100   0.99975549   0.45500626    20.515457     22.47009    4.8132047 
    2200    1.0007376   0.45406766    20.516573    22.471741    4.8123303 
    2300    1.0026416   0.45479191    20.516241    22.474989    4.8172253 
    2400    1.0013529   0.45489472    20.517424    22.474342     4.793532 
    2500    1.0030277    0.4533849    20.518079       22.476    4.7830071 
    2600     1.002149   0.45552549    20.517604    22.476348    4.7805392 
    2700    1.0048053   0.45415776    20.515079    22.476439    4.7969379 
    2800    1.0008566   0.45751523    20.517173    22.475967    4.8229817 
    2900    1.0055688   0.45481064      20.5155    22.478657    4.7965989 
    3000    1.0033692   0.45695057    20.517524    22.479522    4.8017341 
    3100    1.0043617   0.45420196    20.517087    22.477826    4.8100238 
    3200    1.0028872   0.45543899    20.517045    22.476809    4.8198522 
    3300    1.0022845   0.45480034     20.51746    22.475681    4.7907597 
    3400    1.0018574   0.45454898    20.517794    22.475123    4.7690084 
    3500    1.0026509   0.45487927    20.516771     22.47562     4.798222 
    3600    1.0037141   0.45471922    20.517231    22.477516    4.8087995 
    3700    1.0029718    0.4530622    20.517124    22.474638    4.7924556 
    3800    1.0033478    0.4528886    20.516501    22.474405    4.7784406 
    3900    1.0029583   0.45421064    20.515222    22.473864    4.7916007 
    4000    1.0006099   0.45712584    20.516498    22.474533    4.8183114 
    4100    1.0018201   0.45511679    20.515585    22.473426    4.8071417 
    4200    1.0032995   0.45449424    20.515234    22.474671    4.7892311 
    4300    1.0012771    0.4540623    20.517588     22.47356    4.7921814 
    4400    1.0009467   0.45406779     20.51713    22.472612    4.8022179 
    4500    1.0005876   0.45225867    20.517831    22.470965    4.8066394 
    4600     1.000131   0.45410256    20.517589    22.471883    4.7689253 
    4700    1.0016356   0.45227986    20.516329    22.471057    4.8065327 
    4800   0.99942191   0.45610843     20.51495    22.470185    4.7767043 
    4900    1.0005142   0.45192115    20.516883     22.46957    4.7904114 
    5000    1.0007474   0.45404865    20.515607    22.470771    4.7734961 
    5100    1.0016062   0.45274618    20.516123    22.471272    4.7921915 
    5200   0.99947982   0.45304564    20.518026    22.470286     4.803634 
    5300    1.0006275   0.45543757    20.515869    22.472242    4.7846789 
    5400    1.0003513   0.45445102    20.514194    22.469166    4.8132287 
    5500   0.99944211   0.45427197    20.513644    22.467074    4.7746541 
    5600   0.99914269   0.45555413    20.516666    22.470929    4.8129251 
    5700    1.0000944   0.45523898    20.514964    22.470339    4.7973148 
    5800    1.0012762   0.45552178    20.513354    22.470784    4.7782854 
    5900    1.0016904   0.45125467    20.514294    22.468079    4.7656201 
    6000    1.0019718   0.45226041    20.512368    22.467581    4.7803091 
    6100   0.99854469     0.452287     20.51435    22.464449    4.7416598 
    6200   0.99769558   0.45390945    20.515829    22.466276    4.8025996 
    6300   0.99734094   0.45298027    20.515435    22.464421    4.7608158 
    6400   0.99747215   0.45281679     20.51449     22.46351    4.8015001 
    6500   0.99769198   0.45308683    20.514721     22.46434    4.7570128 
    6600   0.99883634   0.45429762    20.514466    22.467012    4.7820903 
    6700   0.99884195   0.45494556     20.51539    22.468592     4.811665 
    6800   0.99818855    0.4552592    20.515624     22.46816    4.8256782 
    6900    1.0009769    0.4529907    20.513657    22.468107    4.8105214 
    7000      1.00039   0.45366821    20.515382    22.469629    4.8163261 
    7100   0.99965576   0.45486258    20.516985    22.471325    4.7768397 
    7200    1.0001997   0.45423602     20.51717      22.4717     4.804154 
    7300    1.0035539   0.45322511     20.51475      22.4733    4.7839468 
    7400    1.0030799   0.45195295    20.514111    22.470678    4.8063504 
    7500    1.0005097   0.45514566    20.515565    22.471469    4.8318608 
    7600    1.0019287   0.45499855    20.515219    22.473105    4.8136749 
    7700    1.0008677   0.45553665    20.516826    22.473659    4.7819289 
    7800    1.0016873   0.45463037    20.515282    22.472438    4.7931049 
    7900    1.0021405   0.45492192    20.515748    22.473875     4.779964 
    8000    1.0015416   0.45292673    20.517049    22.472282    4.7849575 
    8100    1.0002933    0.4526959     20.51587       22.469    4.7866076 
    8200   0.99770065   0.45475231    20.518962    22.470259    4.7888683 
    8300    1.0004455   0.45497803    20.515879    22.471519    4.7892397 
    8400   0.99897444   0.45505855    20.516977    22.470492    4.7941133 
    8500    1.0027401    0.4527668    20.514768    22.471639    4.7677771 
    8600   0.99963317   0.45420754       20.515    22.468652    4.8123603 
    8700    1.0002624   0.45481315    20.513663    22.468864    4.7806183 
    8800     0.999081   0.45418695    20.517028    22.469831    4.7796809 
    8900   0.99996135   0.45557934    20.515151    22.470667    4.7922512 
    9000    1.0015946   0.45358185    20.517587    22.473555    4.8058781 
    9100    1.0008992   0.45458512    20.516069    22.471997    4.8271665 
    9200    1.0014453   0.45427133    20.515055    22.471488    4.8154973 
    9300     1.001234   0.45439989    20.516266    22.472511    4.7775108 
    9400    1.0030767   0.45425176    20.513543    22.472404    4.7741541 
    9500   0.99996043   0.45319252    20.516584    22.469711    4.7697311 
    9600    1.0000539   0.45394601    20.515713    22.469734    4.7809445 
    9700    1.0010306   0.45395909    20.513839    22.469338    4.8256824 
    9800   0.99966762   0.45475163    20.517037    22.471285    4.8046078 
    9900   0.99902275   0.45549303    20.517122    22.471143    4.8108262 
   10000    1.0012286   0.45268313    20.516882    22.471403    4.8071684 
Loop time of 70.2236 on 8 procs for 10000 steps with 256000 atoms

Performance: 147642.694 tau/day, 142.402 timesteps/s
99.5% CPU use with 8 MPI tasks x 1 OpenMP threads

MPI task timing breakdown:
Section |  min time  |  avg time  |  max time  |%varavg| %total
---------------------------------------------------------------
Pair    | 20.176     | 20.273     | 20.359     |   1.4 | 28.87
Bond    | 3.5237     | 3.5429     | 3.582      |   1.1 |  5.05
Neigh   | 17.79      | 17.821     | 17.855     |   0.5 | 25.38
Comm    | 10.235     | 10.422     | 10.59      |   3.6 | 14.84
Output  | 0.0095649  | 0.010203   | 0.010616   |   0.3 |  0.01
Modify  | 15.836     | 15.982     | 16.208     |   2.8 | 22.76
Other   |            | 2.172      |            |       |  3.09

Nlocal:          32000 ave       32038 max       31955 min
Histogram: 1 1 0 1 0 0 2 1 1 1
Nghost:        9502.12 ave        9553 max        9482 min
Histogram: 4 0 0 3 0 0 0 0 0 1
Neighs:         187434 ave      187792 max      187075 min
Histogram: 1 1 0 1 1 1 1 1 0 1

Total # of neighbors = 1499468
Ave neighs/atom = 5.8572969
Ave special neighs/atom = 1.98
Neighbor list builds = 2575
Dangerous builds = 0
Total wall time: 0:01:10
Intel(R) VTune(TM) Profiler 2022.2.0 collection completed successfully. Use the "aps --report /home/ubuntu/lammps/bench/aps_result_20220703" command to generate textual and HTML reports for the profiling session.
