LAMMPS (7 Jan 2022)
  using 1 OpenMP thread(s) per MPI task
Reading data file ...
  orthogonal box = (-16.796 -16.796 -16.796) to (16.796 16.796 16.796)
  1 by 1 by 1 MPI processor grid
  reading atoms ...
  32000 atoms
  reading velocities ...
  32000 velocities
  scanning bonds ...
  1 = max bonds/atom
  reading bonds ...
  31680 bonds
Finding 1-2 1-3 1-4 neighbors ...
  special bond factors lj:    0        1        1       
  special bond factors coul:  0        1        1       
     2 = max # of 1-2 neighbors
     2 = max # of special neighbors
  special bonds CPU = 0.006 seconds
  read_data CPU = 0.122 seconds
Replicating atoms ...
  orthogonal box = (-16.796 -16.796 -16.796) to (50.388 50.388 50.388)
  1 by 1 by 1 MPI processor grid
  256000 atoms
  253440 bonds
Finding 1-2 1-3 1-4 neighbors ...
  special bond factors lj:    0        1        1       
  special bond factors coul:  0        1        1       
     2 = max # of 1-2 neighbors
     2 = max # of special neighbors
  special bonds CPU = 0.040 seconds
  replicate CPU = 0.067 seconds
----------------------------------------------------------
Using INTEL Package without Coprocessor.
Compiler: Intel Classic C++ 20.21.5 / Intel(R) C++ g++ 9.3 mode
SIMD compiler directives: Enabled
Precision: mixed
----------------------------------------------------------
  generated 0 of 0 mixed pair_coeff terms from geometric mixing rule
Neighbor list info ...
  update every 1 steps, delay 1 steps, check yes
  max neighbors/atom: 2000, page size: 100000
  master list distance cutoff = 1.52
  ghost atom cutoff = 1.52
  binsize = 0.76, bins = 89 89 89
  1 neighbor lists, perpetual/occasional/extra = 1 0 0
  (1) pair lj/cut/intel, perpetual
      attributes: half, newton on, intel
      pair build: half/bin/newton/intel
      stencil: half/bin/3d
      bin: intel
Setting up Verlet run ...
  Unit style    : lj
  Current step  : 0
  Time step     : 0.012
WARNING: Communication cutoff 1.52 is shorter than a bond length based estimate of 1.855. This may lead to errors. (../comm.cpp:723)
Per MPI rank memory allocation (min/avg/max) = 2250 | 2250 | 2250 Mbytes
Step Temp E_pair E_mol TotEng Press 
       0   0.97027119   0.44484088    20.494523    22.394765    4.6721834 
     100   0.97285902   0.44099781    20.502766    22.403047    4.6938499 
     200   0.97622142   0.44260481    20.505499     22.41243    4.7038601 
     300   0.97872885    0.4462746    20.506234    22.420596    4.7467624 
     400   0.98205368   0.44611775    20.507561    22.426753    4.7397693 
     500   0.98654051   0.44493615    20.507242    22.431983    4.7411833 
     600   0.98788277   0.44672761    20.507573    22.436119    4.7305829 
     700   0.98835462   0.45102969    20.507434     22.44099     4.767213 
     800   0.99115297    0.4485361    20.510394    22.445654    4.7361316 
     900   0.99308738   0.44949448    20.511408    22.450528    4.7867741 
    1000   0.99349443   0.45222541    20.511135    22.453596    4.7347966 
    1100   0.99443846    0.4519144    20.513845    22.457411    4.7707403 
    1200   0.99525579   0.45139961    20.515782     22.46006    4.7830768 
    1300   0.99829666   0.45099292    20.513899    22.462331    4.7485822 
    1400   0.99687487   0.45313672    20.514859    22.463302    4.7724148 
    1500   0.99906329   0.45280841    20.514472     22.46587    4.7829047 
    1600   0.99827184   0.45136405    20.513635      22.4624    4.7664714 
    1700    1.0001117   0.45410288    20.511597    22.465862    4.7963163 
    1800   0.99935262   0.45355981    20.515036    22.467619    4.7575995 
    1900    1.0011061   0.45232232     20.51594    22.469916    4.7457901 
    2000    1.0004755   0.45156726    20.516802    22.469077    4.7821983 
    2100    1.0000334     0.451963    20.516045    22.468052    4.7765587 
    2200    1.0019075   0.45433861    20.512261    22.469455     4.818372 
    2300   0.99840949   0.45319615    20.518657    22.469462    4.8090687 
    2400    1.0024546   0.45246162    20.515257    22.471394    4.7631776 
    2500    1.0019449   0.45508375    20.516246    22.474242    4.8267441 
    2600     1.000375   0.45438527    20.519013    22.473955    4.7989243 
    2700    1.0023275   0.45618154    20.516685    22.476352     4.785802 
    2800    1.0011351   0.45498102      20.5187    22.475378    4.7718848 
    2900    1.0041281    0.4560086    20.515575     22.47777     4.781122 
    3000    1.0036738   0.45395789     20.52001    22.479473    4.7868675 
    3100    1.0030789   0.45630004    20.516951    22.477863    4.8042676 
    3200    1.0040698   0.45366243    20.514826    22.474587    4.7839486 
    3300    1.0022822   0.45451458    20.517682    22.475614    4.7999879 
    3400    1.0036742   0.45292357    20.516254    22.474683    4.7948228 
    3500    1.0024696   0.45428396    20.518184    22.476167    4.7893564 
    3600    1.0029762   0.45305646    20.516738    22.474253    4.7621425 
    3700    1.0017022   0.45668362    20.515136    22.474367    4.8161423 
    3800    1.0028151   0.45416988    20.514108    22.472494     4.791175 
    3900    1.0020114   0.45502409    20.515404    22.473439    4.7817171 
    4000    1.0020995   0.45355583    20.515015    22.471714    4.7877529 
    4100    1.0019735   0.45287221    20.516741    22.472568    4.7926067 
    4200     1.000644   0.45287483    20.517449    22.471284    4.8017532 
    4300    1.0013501   0.45417931    20.514273    22.470471    4.7760879 
    4400    1.0004026   0.45415248    20.516801    22.471551    4.7617328 
    4500    1.0006743   0.45314262    20.516625    22.470774    4.8007415 
    4600   0.99800787   0.45539383    20.515688    22.468088    4.8080405 
    4700    1.0011463   0.45301583    20.514334    22.469063    4.8039403 
    4800    1.0002153   0.45230369    20.516567    22.469188    4.7925813 
    4900     1.000363   0.45387625    20.516498    22.470913    4.7742683 
    5000   0.99982487     0.456166     20.51712    22.473018    4.7960676 
    5100    1.0027554   0.45306917    20.516662    22.473858    4.7692955 
    5200    1.0034833    0.4526771    20.515573    22.473469    4.7943974 
    5300    1.0032801    0.4542074    20.515117    22.474238    4.7929541 
    5400    1.0012412   0.45567843    20.515902    22.473437    4.8001841 
    5500    1.0030136   0.45419428    20.516165    22.474873    4.8076077 
    5600    1.0029748    0.4526117    20.516724    22.473792    4.7650554 
    5700    1.0032826   0.45246155    20.517106    22.474485    4.7671199 
    5800    1.0002774   0.45568221    20.516786    22.472878    4.8099008 
    5900    1.0034715   0.45355845    20.517249    22.476009    4.7760225 
    6000    1.0022901   0.45501982    20.518171     22.47662    4.8097305 
    6100     1.001258   0.45502623    20.516995    22.473903    4.8200566 
    6200    1.0020195   0.45339043    20.513353    22.469767    4.7904276 
    6300    1.0005949   0.45409034    20.512641    22.467618    4.7695249 
    6400   0.99865099    0.4510572     20.51635    22.465378    4.7742601 
    6500   0.99808216   0.45346889    20.512998    22.463584    4.7950979 
    6600   0.99853887   0.45258186     20.51357    22.463954    4.7822859 
    6700   0.99871265   0.45275922    20.513839    22.464662    4.7726562 
    6800   0.99760487   0.45187983    20.516411    22.464692    4.7794953 
    6900    1.0002529   0.45300785    20.512062    22.465444    4.7604456 
    7000    1.0011006   0.45144555    20.513337    22.466428    4.7932546 
    7100    1.0008156   0.45320034    20.512604    22.467022    4.8210213 
    7200    1.0007878   0.45151332    20.512447    22.465136    4.8040687 
    7300    1.0000462    0.4514633    20.514265    22.465792     4.758348 
    7400   0.99864189   0.45371799    20.514092    22.465767    4.7730458 
    7500     1.000256   0.45133311    20.514328     22.46604    4.8104971 
    7600     1.000114   0.45285884    20.514716     22.46774    4.8165556 
    7700    0.9985291   0.45250786    20.515883    22.466178    4.7568996 
    7800   0.99749518    0.4528319    20.516046    22.465114    4.7997997 
    7900   0.99864373   0.45255934    20.515417    22.465936    4.7952501 
    8000   0.99664138   0.45487107    20.515075    22.464903    4.7892286 
    8100   0.99922817   0.45259467    20.515587    22.467018    4.7900532 
    8200   0.99914127   0.45402748    20.516006     22.46874    4.7918672 
    8300    0.9973538   0.45560966    20.515319    22.466953    4.7972551 
    8400    1.0005141   0.45106274    20.514788    22.466616    4.7649597 
    8500    1.0009974    0.4513391    20.515515    22.468344    4.7928669 
    8600   0.99879071   0.45235474     20.51691    22.467445      4.77535 
    8700   0.99823276   0.45287338    20.516483    22.466699    4.8101982 
    8800     1.000607   0.45261589    20.514629     22.46815    4.7632867 
    8900   0.99969404   0.45355888    20.515589    22.468683     4.813765 
    9000   0.99968276   0.45275621    20.517433    22.469707    4.7993424 
    9100    1.0013759    0.4510564    20.516385    22.469499    4.7933933 
    9200    1.0023802   0.45499053    20.514934    22.473489     4.795739 
    9300    1.0015035   0.45509527    20.518195     22.47554    4.8109526 
    9400    1.0017773   0.45312536    20.516431    22.472217    4.7867259 
    9500    1.0016947   0.45533057    20.516775    22.474642    4.8126472 
    9600    1.0025056    0.4547358     20.51656    22.475049    4.7984231 
    9700     1.002201   0.45369652    20.517162    22.474154    4.8013757 
    9800    1.0028213   0.45527731    20.516172    22.475676     4.804337 
    9900    1.0006918   0.45568905    20.518369     22.47509    4.7974288 
   10000    1.0015578   0.45693428    20.514864    22.474129    4.8230479 
Loop time of 579.206 on 1 procs for 10000 steps with 256000 atoms

Performance: 17900.357 tau/day, 17.265 timesteps/s
100.0% CPU use with 1 MPI tasks x 1 OpenMP threads

MPI task timing breakdown:
Section |  min time  |  avg time  |  max time  |%varavg| %total
---------------------------------------------------------------
Pair    | 163.59     | 163.59     | 163.59     |   0.0 | 28.24
Bond    | 30.09      | 30.09      | 30.09      |   0.0 |  5.19
Neigh   | 144.93     | 144.93     | 144.93     |   0.0 | 25.02
Comm    | 94.422     | 94.422     | 94.422     |   0.0 | 16.30
Output  | 0.057246   | 0.057246   | 0.057246   |   0.0 |  0.01
Modify  | 128.82     | 128.82     | 128.82     |   0.0 | 22.24
Other   |            | 17.3       |            |       |  2.99

Nlocal:         256000 ave      256000 max      256000 min
Histogram: 1 0 0 0 0 0 0 0 0 0
Nghost:          36327 ave       36327 max       36327 min
Histogram: 1 0 0 0 0 0 0 0 0 0
Neighs:    1.49945e+06 ave 1.49945e+06 max 1.49945e+06 min
Histogram: 1 0 0 0 0 0 0 0 0 0

Total # of neighbors = 1499453
Ave neighs/atom = 5.8572383
Ave special neighs/atom = 1.98
Neighbor list builds = 2579
Dangerous builds = 0
Total wall time: 0:09:39
Intel(R) VTune(TM) Profiler 2022.2.0 collection completed successfully. Use the "aps --report /home/ubuntu/lammps/bench/aps_result_20220703" command to generate textual and HTML reports for the profiling session.
