LAMMPS (7 Jan 2022)
  using 1 OpenMP thread(s) per MPI task
Reading data file ...
  orthogonal box = (0 0 0) to (40 20 37.2886)
  1 by 1 by 1 MPI processor grid
  reading atoms ...
  32000 atoms
  reading velocities ...
  32000 velocities
  read_data CPU = 0.160 seconds
912 atoms in group bottom
31088 atoms in group active
  generated 0 of 1 mixed pair_coeff terms from geometric mixing rule
Neighbor list info ...
  update every 1 steps, delay 0 steps, check yes
  max neighbors/atom: 2000, page size: 100000
  master list distance cutoff = 1.1
  ghost atom cutoff = 1.1
  binsize = 0.55, bins = 73 37 68
  1 neighbor lists, perpetual/occasional/extra = 1 0 0
  (1) pair gran/hooke/history, perpetual
      attributes: half, newton off, size, history
      pair build: half/size/bin/newtoff
      stencil: full/bin/3d
      bin: standard
Setting up Verlet run ...
  Unit style    : lj
  Current step  : 0
  Time step     : 0.0001
Per MPI rank memory allocation (min/avg/max) = 23.37 | 23.37 | 23.37 Mbytes
Step Atoms KinEng c_1 Volume 
       0    32000    784139.13    1601.1263    29833.783 
     100    32000    784292.08    1571.0968    29834.707 
Loop time of 0.478238 on 1 procs for 100 steps with 32000 atoms

Performance: 1806.631 tau/day, 209.101 timesteps/s
48.1% CPU use with 1 MPI tasks x 1 OpenMP threads

MPI task timing breakdown:
Section |  min time  |  avg time  |  max time  |%varavg| %total
---------------------------------------------------------------
Pair    | 0.26167    | 0.26167    | 0.26167    |   0.0 | 54.72
Neigh   | 0.05785    | 0.05785    | 0.05785    |   0.0 | 12.10
Comm    | 0.010265   | 0.010265   | 0.010265   |   0.0 |  2.15
Output  | 0.00012678 | 0.00012678 | 0.00012678 |   0.0 |  0.03
Modify  | 0.11868    | 0.11868    | 0.11868    |   0.0 | 24.82
Other   |            | 0.02964    |            |       |  6.20

Nlocal:          32000 ave       32000 max       32000 min
Histogram: 1 0 0 0 0 0 0 0 0 0
Nghost:           5463 ave        5463 max        5463 min
Histogram: 1 0 0 0 0 0 0 0 0 0
Neighs:         115133 ave      115133 max      115133 min
Histogram: 1 0 0 0 0 0 0 0 0 0

Total # of neighbors = 115133
Ave neighs/atom = 3.5979062
Neighbor list builds = 2
Dangerous builds = 0
Total wall time: 0:00:00
Intel(R) VTune(TM) Profiler 2022.2.0 collection completed successfully. Use the "aps --report /home/ubuntu/lammps/bench/aps_result_20220531" command to generate textual and HTML reports for the profiling session.
