LAMMPS (7 Jan 2022)
  using 1 OpenMP thread(s) per MPI task
Reading data file ...
  orthogonal box = (0 0 0) to (40 20 37.2886)
  4 by 4 by 4 MPI processor grid
  reading atoms ...
  32000 atoms
  reading velocities ...
  32000 velocities
  read_data CPU = 0.086 seconds
912 atoms in group bottom
31088 atoms in group active
  generated 0 of 1 mixed pair_coeff terms from geometric mixing rule
Neighbor list info ...
  update every 1 steps, delay 0 steps, check yes
  max neighbors/atom: 2000, page size: 100000
  master list distance cutoff = 1.1
  ghost atom cutoff = 1.1
  binsize = 0.55, bins = 73 37 68
  1 neighbor lists, perpetual/occasional/extra = 1 0 0
  (1) pair gran/hooke/history, perpetual
      attributes: half, newton off, size, history
      pair build: half/size/bin/newtoff
      stencil: full/bin/3d
      bin: standard
Setting up Verlet run ...
  Unit style    : lj
  Current step  : 0
  Time step     : 0.0001
Per MPI rank memory allocation (min/avg/max) = 10.04 | 10.04 | 10.05 Mbytes
Step Atoms KinEng c_1 Volume 
       0    32000    784139.13    1601.1263    29833.783 
     100    32000    784292.08    1571.0968    29834.707 
     200    32000    784422.71    1573.8634     29836.23 
     300    32000    784563.48    1580.4742    29837.727 
     400    32000    784708.17    1572.2381     29839.15 
     500    32000    784831.77    1564.0479    29840.694 
     600    32000    784971.37    1564.4511    29842.232 
     700    32000     785128.6    1552.4596    29843.695 
     800    32000    785290.26    1555.2209    29845.083 
     900    32000    785460.68    1545.8818    29846.397 
    1000    32000    785572.21    1539.8672    29847.635 
    1100    32000    785702.57    1533.8018    29848.799 
    1200    32000    785822.06    1545.9335    29849.888 
    1300    32000    785929.63    1549.9353    29850.902 
    1400    32000    786011.56    1552.8199    29851.841 
    1500    32000    786107.94    1566.1477    29852.706 
    1600    32000    786190.87    1573.3323    29853.496 
    1700    32000     786268.8    1592.7949    29854.211 
    1800    32000    786324.94    1606.0429    29854.646 
    1900    32000    786375.84    1614.3405    29855.236 
    2000    32000    786433.32    1618.8645    29855.751 
    2100    32000    786487.22    1636.6863    29856.192 
    2200    32000    786552.82    1640.6543    29856.558 
    2300    32000    786614.67    1639.1785    29856.849 
    2400    32000    786690.17    1633.2068    29857.065 
    2500    32000    786750.14    1631.8363    29857.206 
    2600    32000    786796.44    1639.2903    29857.273 
    2700    32000       786838    1646.9962    29857.318 
    2800    32000    786860.08    1647.0423    29857.485 
    2900    32000    786893.35    1652.7842    29857.576 
    3000    32000    786907.36    1659.3365    29857.593 
    3100    32000    786940.79    1666.9698    29857.535 
    3200    32000     786984.8    1668.7762    29857.403 
    3300    32000    787049.82    1674.5126    29857.195 
    3400    32000    787123.28    1668.7738    29856.916 
    3500    32000       787213    1660.5165    29856.571 
    3600    32000    787288.44    1657.1291    29856.156 
    3700    32000     787340.9    1654.5795    29855.664 
    3800    32000    787387.99    1653.2088    29855.089 
    3900    32000    787412.77    1663.3299    29854.664 
    4000    32000    787459.32    1663.2696    29853.965 
    4100    32000    787487.09    1663.8338    29853.299 
    4200    32000    787505.52    1666.8002    29853.271 
    4300    32000    787512.48    1660.1829     29853.33 
    4400    32000    787526.81    1665.5494    29853.315 
    4500    32000    787540.16    1668.2927    29853.225 
    4600    32000    787552.75    1677.8392     29853.06 
    4700    32000    787578.41    1684.2218     29852.82 
    4800    32000    787608.53    1671.5696    29852.505 
    4900    32000    787626.27    1681.3868    29852.116 
    5000    32000    787656.68    1699.6224    29851.651 
    5100    32000    787676.37    1716.1794    29851.112 
    5200    32000    787694.02    1723.2248    29850.498 
    5300    32000    787717.06    1730.0267     29849.81 
    5400    32000     787757.6    1726.0449    29849.062 
    5500    32000     787823.3    1727.7408    29849.067 
    5600    32000    787883.13    1728.4511    29849.011 
    5700    32000    787934.28    1714.3892    29848.879 
    5800    32000    787988.59    1704.8371    29848.673 
    5900    32000    788048.96      1710.92    29848.494 
    6000    32000    788096.32    1713.4238    29848.163 
    6100    32000    788161.88    1712.5262    29847.766 
    6200    32000    788227.09    1709.0918    29847.302 
    6300    32000    788300.57    1704.3836    29846.768 
    6400    32000    788372.02     1705.617    29845.946 
    6500    32000    788452.14     1701.981    29845.586 
    6600    32000    788540.03    1708.5174    29845.391 
    6700    32000     788653.4    1701.4342    29845.125 
    6800    32000    788753.84     1697.465    29844.781 
    6900    32000    788866.52    1687.4495    29844.359 
    7000    32000    788974.72    1678.9124    29844.036 
    7100    32000    789076.69    1667.6823    29843.489 
    7200    32000    789185.47     1663.051    29842.868 
    7300    32000    789279.01    1647.2707    29842.172 
    7400    32000    789361.18    1653.3017    29841.401 
    7500    32000    789439.69     1655.432    29840.555 
    7600    32000    789529.07    1643.9172    29839.634 
    7700    32000     789615.1    1633.5625    29838.639 
    7800    32000    789677.34     1637.203    29837.569 
    7900    32000    789746.09    1635.6733    29836.424 
    8000    32000    789807.27    1646.0645    29835.204 
    8100    32000    789861.32    1650.2302    29833.909 
    8200    32000    789921.54    1643.7858     29832.54 
    8300    32000    789975.28    1643.8511    29831.095 
    8400    32000    790033.38    1641.2857    29829.576 
    8500    32000    790060.81    1637.8796    29828.095 
    8600    32000    790088.76    1650.5314    29826.874 
    8700    32000    790120.99     1650.802    29825.594 
    8800    32000    790153.08    1656.0402    29824.244 
    8900    32000    790160.03    1668.9381    29822.823 
    9000    32000    790159.78    1667.9257    29821.332 
    9100    32000    790120.74    1684.8734    29819.817 
    9200    32000    790079.04    1684.7835    29818.687 
    9300    32000    790034.18    1695.7391    29817.489 
    9400    32000    789974.19    1709.8105    29816.221 
    9500    32000    789892.51    1720.1387    29814.883 
    9600    32000    789813.09    1722.8943    29813.474 
    9700    32000    789713.68    1739.7993    29811.994 
    9800    32000    789603.49    1759.1301    29810.444 
    9900    32000    789526.17     1769.458    29808.824 
   10000    32000    789439.58    1772.5178    29807.133 
Loop time of 0.828558 on 64 procs for 10000 steps with 32000 atoms

Performance: 104277.541 tau/day, 12069.160 timesteps/s
98.8% CPU use with 64 MPI tasks x 1 OpenMP threads

MPI task timing breakdown:
Section |  min time  |  avg time  |  max time  |%varavg| %total
---------------------------------------------------------------
Pair    | 0.11802    | 0.20764    | 0.27785    |  10.9 | 25.06
Neigh   | 0.084399   | 0.10503    | 0.11999    |   3.9 | 12.68
Comm    | 0.20873    | 0.23878    | 0.25699    |   2.7 | 28.82
Output  | 0.0017848  | 0.0028042  | 0.004046   |   1.3 |  0.34
Modify  | 0.081183   | 0.10069    | 0.11453    |   3.8 | 12.15
Other   |            | 0.1736     |            |       | 20.95

Nlocal:            500 ave         519 max         478 min
Histogram: 3 1 2 12 11 11 11 6 5 2
Nghost:        534.547 ave         609 max         463 min
Histogram: 12 20 0 0 0 0 0 2 21 9
Neighs:        2051.11 ave        2244 max        1823 min
Histogram: 15 1 1 2 4 10 3 8 12 8

Total # of neighbors = 131271
Ave neighs/atom = 4.1022187
Neighbor list builds = 296
Dangerous builds = 0
Total wall time: 0:00:00
Intel(R) VTune(TM) Profiler 2022.2.0 collection completed successfully. Use the "aps --report /home/ubuntu/lammps/bench/aps_result_20220703" command to generate textual and HTML reports for the profiling session.
