LAMMPS (7 Jan 2022)
  using 1 OpenMP thread(s) per MPI task
Reading data file ...
  orthogonal box = (-16.796 -16.796 -16.796) to (16.796 16.796 16.796)
  1 by 1 by 2 MPI processor grid
  reading atoms ...
  32000 atoms
  reading velocities ...
  32000 velocities
  scanning bonds ...
  1 = max bonds/atom
  reading bonds ...
  31680 bonds
Finding 1-2 1-3 1-4 neighbors ...
  special bond factors lj:    0        1        1       
  special bond factors coul:  0        1        1       
     2 = max # of 1-2 neighbors
     2 = max # of special neighbors
  special bonds CPU = 0.004 seconds
  read_data CPU = 0.121 seconds
Replicating atoms ...
  orthogonal box = (-16.796 -16.796 -16.796) to (50.388 50.388 50.388)
  1 by 1 by 2 MPI processor grid
  256000 atoms
  253440 bonds
Finding 1-2 1-3 1-4 neighbors ...
  special bond factors lj:    0        1        1       
  special bond factors coul:  0        1        1       
     2 = max # of 1-2 neighbors
     2 = max # of special neighbors
  special bonds CPU = 0.028 seconds
  replicate CPU = 0.053 seconds
----------------------------------------------------------
Using INTEL Package without Coprocessor.
Compiler: Intel Classic C++ 20.21.5 / Intel(R) C++ g++ 9.3 mode
SIMD compiler directives: Enabled
Precision: single
----------------------------------------------------------
  generated 0 of 0 mixed pair_coeff terms from geometric mixing rule
Neighbor list info ...
  update every 1 steps, delay 1 steps, check yes
  max neighbors/atom: 2000, page size: 100000
  master list distance cutoff = 1.52
  ghost atom cutoff = 1.52
  binsize = 0.76, bins = 89 89 89
  1 neighbor lists, perpetual/occasional/extra = 1 0 0
  (1) pair lj/cut/intel, perpetual
      attributes: half, newton on, intel
      pair build: half/bin/newton/intel
      stencil: half/bin/3d
      bin: intel
Setting up Verlet run ...
  Unit style    : lj
  Current step  : 0
  Time step     : 0.012
WARNING: Communication cutoff 1.52 is shorter than a bond length based estimate of 1.855. This may lead to errors. (../comm.cpp:723)
Per MPI rank memory allocation (min/avg/max) = 1129 | 1129 | 1129 Mbytes
Step Temp E_pair E_mol TotEng Press 
       0   0.97027119   0.44483469    20.497329    22.397565    4.6721834 
     100   0.97242355   0.44152519    20.505937    22.406091    4.6902068 
Loop time of 3.21346 on 2 procs for 100 steps with 256000 atoms

Performance: 32264.335 tau/day, 31.119 timesteps/s
99.7% CPU use with 2 MPI tasks x 1 OpenMP threads

MPI task timing breakdown:
Section |  min time  |  avg time  |  max time  |%varavg| %total
---------------------------------------------------------------
Pair    | 0.86296    | 0.88182    | 0.90068    |   2.0 | 27.44
Bond    | 0.13929    | 0.1423     | 0.14531    |   0.8 |  4.43
Neigh   | 0.76418    | 0.76429    | 0.7644     |   0.0 | 23.78
Comm    | 0.52543    | 0.54949    | 0.57355    |   3.2 | 17.10
Output  | 0.00025029 | 0.00025283 | 0.00025537 |   0.0 |  0.01
Modify  | 0.73991    | 0.75817    | 0.77643    |   2.1 | 23.59
Other   |            | 0.1171     |            |       |  3.65

Nlocal:         128000 ave      128008 max      127992 min
Histogram: 1 0 0 0 0 0 0 0 0 1
Nghost:        24472.5 ave       24497 max       24448 min
Histogram: 1 0 0 0 0 0 0 0 0 1
Neighs:         750022 ave      750189 max      749855 min
Histogram: 1 0 0 0 0 0 0 0 0 1

Total # of neighbors = 1500044
Ave neighs/atom = 5.8595469
Ave special neighs/atom = 1.98
Neighbor list builds = 25
Dangerous builds = 0
Total wall time: 0:00:03
Intel(R) VTune(TM) Profiler 2022.2.0 collection completed successfully. Use the "aps --report /home/ubuntu/lammps/bench/aps_result_20220601" command to generate textual and HTML reports for the profiling session.
