LAMMPS (7 Jan 2022)
  using 1 OpenMP thread(s) per MPI task
New timer settings: style=full  mode=nosync  timeout=off
Reading data file ...
  orthogonal box = (-16.796 -16.796 -16.796) to (16.796 16.796 16.796)
  2 by 2 by 4 MPI processor grid
  reading atoms ...
  32000 atoms
  reading velocities ...
  32000 velocities
  scanning bonds ...
  1 = max bonds/atom
  reading bonds ...
  31680 bonds
Finding 1-2 1-3 1-4 neighbors ...
  special bond factors lj:    0        1        1       
  special bond factors coul:  0        1        1       
     2 = max # of 1-2 neighbors
     2 = max # of special neighbors
  special bonds CPU = 0.002 seconds
  read_data CPU = 0.114 seconds
----------------------------------------------------------
Using INTEL Package without Coprocessor.
Compiler: Intel Classic C++ 20.21.5 / Intel(R) C++ g++ 9.3 mode
SIMD compiler directives: Enabled
Precision: mixed
----------------------------------------------------------
  generated 0 of 0 mixed pair_coeff terms from geometric mixing rule
Neighbor list info ...
  update every 1 steps, delay 1 steps, check yes
  max neighbors/atom: 2000, page size: 100000
  master list distance cutoff = 1.52
  ghost atom cutoff = 1.52
  binsize = 0.76, bins = 45 45 45
  1 neighbor lists, perpetual/occasional/extra = 1 0 0
  (1) pair lj/cut/intel, perpetual
      attributes: half, newton on, intel
      pair build: half/bin/newton/intel
      stencil: half/bin/3d
      bin: intel
Setting up Verlet run ...
  Unit style    : lj
  Current step  : 0
  Time step     : 0.012
WARNING: Communication cutoff 1.52 is shorter than a bond length based estimate of 1.855. This may lead to errors. (../comm.cpp:723)
Per MPI rank memory allocation (min/avg/max) = 21.26 | 21.44 | 21.58 Mbytes
Step Temp E_pair E_mol TotEng Press 
       0   0.97029772   0.44484085    20.494523    22.394765    4.6721835 
     100   0.97460628    0.4379072    20.507359     22.40713    4.6921818 
Loop time of 0.0620327 on 16 procs for 100 steps with 32000 atoms

Performance: 1671376.339 tau/day, 1612.053 timesteps/s
94.6% CPU use with 16 MPI tasks x 1 OpenMP threads

MPI task timing breakdown:
Section |  min time  |  avg time  |  max time  |%varavg|  %CPU | %total
-----------------------------------------------------------------------
Pair    | 0.013649   | 0.015829   | 0.016313   |   0.5 |  95.1 | 25.52
Bond    | 0.0022669  | 0.0027319  | 0.0028311  |   0.2 |  95.2 |  4.40
Neigh   | 0.015524   | 0.015535   | 0.01557    |   0.0 |  94.4 | 25.04
Comm    | 0.012359   | 0.012967   | 0.016045   |   0.7 |  93.2 | 20.90
Output  | 4.5623e-05 | 4.9894e-05 | 7.1043e-05 |   0.0 | 100.0 |  0.08
Modify  | 0.010158   | 0.012304   | 0.012517   |   0.5 |  95.3 | 19.83
Other   |            | 0.002615   |            |       |       |  4.22

Nlocal:           2000 ave        2023 max        1969 min
Histogram: 1 0 0 1 3 5 3 0 1 2
Nghost:        1799.94 ave        1832 max        1779 min
Histogram: 4 0 2 3 1 1 3 1 0 1
Neighs:          11710 ave       11980 max       11402 min
Histogram: 1 0 0 2 6 2 2 1 0 2

Total # of neighbors = 187360
Ave neighs/atom = 5.855
Ave special neighs/atom = 1.98
Neighbor list builds = 25
Dangerous builds = 0
Total wall time: 0:00:00
Intel(R) VTune(TM) Profiler 2022.2.0 collection completed successfully. Use the "aps --report /home/ubuntu/lammps/bench/aps_result_20220519" command to generate textual and HTML reports for the profiling session.
