LAMMPS (7 Jan 2022)
  using 1 OpenMP thread(s) per MPI task
Reading data file ...
  orthogonal box = (0 0 0) to (40 20 37.2886)
  1 by 1 by 1 MPI processor grid
  reading atoms ...
  32000 atoms
  reading velocities ...
  32000 velocities
  read_data CPU = 0.117 seconds
Replicating atoms ...
  orthogonal box = (0 0 0) to (80 40 37.292229)
  1 by 1 by 1 MPI processor grid
  128000 atoms
  replicate CPU = 0.015 seconds
3648 atoms in group bottom
124352 atoms in group active
  generated 0 of 1 mixed pair_coeff terms from geometric mixing rule
Neighbor list info ...
  update every 1 steps, delay 0 steps, check yes
  max neighbors/atom: 2000, page size: 100000
  master list distance cutoff = 1.1
  ghost atom cutoff = 1.1
  binsize = 0.55, bins = 146 73 68
  1 neighbor lists, perpetual/occasional/extra = 1 0 0
  (1) pair gran/hooke/history, perpetual
      attributes: half, newton off, size, history
      pair build: half/size/bin/newtoff
      stencil: full/bin/3d
      bin: standard
Setting up Verlet run ...
  Unit style    : lj
  Current step  : 0
  Time step     : 0.0001
Per MPI rank memory allocation (min/avg/max) = 62.94 | 62.94 | 62.94 Mbytes
Step Atoms KinEng c_1 Volume 
       0   128000    3136556.5    6404.5051    119335.13 
     100   128000    3137168.3    6284.3873    119338.83 
     200   128000    3137690.9    6295.4536    119344.92 
     300   128000    3138253.9    6321.8969    119350.91 
     400   128000    3138832.7    6288.9526     119356.6 
     500   128000    3139327.1    6256.1914    119362.78 
     600   128000    3139885.5    6257.8044    119368.93 
     700   128000    3140514.4    6209.8384    119374.78 
     800   128000      3141161    6220.8836    119380.33 
     900   128000    3141842.7    6183.5273    119385.59 
    1000   128000    3142288.8    6159.4689    119390.54 
    1100   128000    3142810.3    6135.2073     119395.2 
    1200   128000    3143288.2    6183.7341    119399.55 
    1300   128000    3143718.5    6199.7412    119403.61 
    1400   128000    3144046.3    6211.2795    119407.37 
    1500   128000    3144431.8      6264.59    119410.83 
    1600   128000    3144763.5    6293.3333    119413.98 
    1700   128000    3145075.2     6371.173    119416.84 
    1800   128000    3145299.8    6424.1455    119418.58 
    1900   128000    3145503.5    6457.3245    119420.94 
    2000   128000    3145733.4    6475.4028    119423.01 
    2100   128000    3145949.1    6546.7872    119424.77 
    2200   128000    3146210.8    6562.6715    119426.23 
    2300   128000    3146458.3     6556.384     119427.4 
    2400   128000    3146759.5    6534.0648    119428.26 
    2500   128000    3147000.8    6528.2081    119428.83 
    2600   128000    3147183.8    6556.4073    119429.09 
    2700   128000    3147337.5    6595.8166    119429.27 
    2800   128000    3147430.2    6600.7341    119429.94 
    2900   128000    3147555.4    6614.8154    119430.31 
    3000   128000    3147617.9    6617.0667    119430.37 
    3100   128000    3147734.7    6665.5791    119430.14 
    3200   128000    3147892.2     6704.228    119429.61 
    3300   128000    3148174.8    6673.2398    119428.78 
    3400   128000    3148466.5    6653.4649    119427.66 
    3500   128000    3148770.1    6648.8699    119426.29 
    3600   128000      3149059    6618.8329    119424.62 
    3700   128000    3149289.3    6617.1181    119422.68 
    3800   128000    3149463.2    6638.7462    119420.38 
    3900   128000    3149644.5    6660.3464    119417.79 
    4000   128000    3149845.6     6653.062    119415.95 
    4100   128000      3149997    6625.4723    119416.57 
    4200   128000    3150097.2    6614.9876    119417.11 
    4300   128000    3150176.7    6621.4601    119417.35 
    4400   128000    3150242.9    6618.8664     119417.3 
    4500   128000    3150260.4    6650.8215    119416.94 
    4600   128000      3150293    6690.9181    119416.28 
    4700   128000    3150355.7     6709.781    119415.33 
    4800   128000    3150437.9    6732.4644    119414.07 
    4900   128000    3150544.3    6761.2639    119412.52 
    5000   128000    3150692.5    6787.0413    119410.66 
    5100   128000    3150839.8    6817.7477    119408.51 
    5200   128000      3150997    6840.8034    119406.06 
    5300   128000    3151176.7    6880.9417    119403.31 
    5400   128000    3151382.1    6921.7043    119400.32 
    5500   128000    3151624.7    6922.3486    119397.04 
    5600   128000    3151870.1    6917.2316    119393.41 
    5700   128000    3152071.5    6916.6127    119389.47 
    5800   128000    3152327.4    6905.0594    119385.77 
    5900   128000    3152551.3    6900.1236    119383.27 
    6000   128000    3152836.1    6865.9348    119381.15 
    6100   128000    3153107.3    6874.7956    119380.07 
    6200   128000    3153420.2    6858.2635    119378.74 
    6300   128000      3153719    6839.8399    119377.13 
    6400   128000    3154016.4    6819.9389    119375.24 
    6500   128000    3154342.5    6791.6823    119373.06 
    6600   128000    3154650.8    6776.0533    119369.72 
    6700   128000    3154994.4    6754.5096    119366.88 
    6800   128000    3155356.3    6729.2729    119363.78 
    6900   128000    3155713.2    6716.0793    119363.15 
    7000   128000    3156087.9    6691.8846    119361.96 
    7100   128000    3156428.4    6669.0361    119360.47 
    7200   128000    3156757.4    6644.1862    119358.68 
    7300   128000    3157018.6     6647.315    119356.59 
    7400   128000    3157258.8    6637.2789     119354.2 
    7500   128000      3157472    6649.8255    119351.51 
    7600   128000    3157683.6    6621.7165     119348.6 
    7700   128000    3157887.4    6645.3836    119347.16 
    7800   128000    3158093.9    6646.9947    119345.42 
    7900   128000      3158311    6636.8573    119343.38 
    8000   128000    3158489.5    6629.1625    119341.05 
    8100   128000    3158684.2    6623.9562    119338.41 
    8200   128000    3158817.1    6628.4127    119335.57 
    8300   128000    3158975.3    6614.7492    119332.44 
    8400   128000    3159053.9    6634.7509    119329.04 
    8500   128000    3159170.2    6649.1079    119325.35 
    8600   128000    3159274.6    6676.5337    119321.37 
    8700   128000    3159355.8    6680.9785    119317.12 
    8800   128000    3159417.3    6688.6791    119312.59 
    8900   128000    3159440.6    6696.5715    119307.77 
    9000   128000      3159354    6718.3375    119302.67 
    9100   128000    3159231.5    6762.2094    119297.29 
    9200   128000      3159104    6783.9756    119291.62 
    9300   128000    3158904.1    6850.2322    119285.68 
    9400   128000    3158732.3    6886.2636    119279.45 
    9500   128000      3158569    6892.7917    119272.94 
    9600   128000    3158382.2    6877.6527    119266.15 
    9700   128000    3158175.7     6912.775    119259.08 
    9800   128000      3157944    6929.9333    119251.73 
    9900   128000    3157745.3    6970.2111     119255.4 
   10000   128000    3157545.9    6990.1938    119267.68 
Loop time of 110.529 on 1 procs for 10000 steps with 128000 atoms

Performance: 781.696 tau/day, 90.474 timesteps/s
100.0% CPU use with 1 MPI tasks x 1 OpenMP threads

MPI task timing breakdown:
Section |  min time  |  avg time  |  max time  |%varavg| %total
---------------------------------------------------------------
Pair    | 59.476     | 59.476     | 59.476     |   0.0 | 53.81
Neigh   | 19.307     | 19.307     | 19.307     |   0.0 | 17.47
Comm    | 2.5094     | 2.5094     | 2.5094     |   0.0 |  2.27
Output  | 0.046234   | 0.046234   | 0.046234   |   0.0 |  0.04
Modify  | 23.07      | 23.07      | 23.07      |   0.0 | 20.87
Other   |            | 6.121      |            |       |  5.54

Nlocal:         128000 ave      128000 max      128000 min
Histogram: 1 0 0 0 0 0 0 0 0 0
Nghost:          10797 ave       10797 max       10797 min
Histogram: 1 0 0 0 0 0 0 0 0 0
Neighs:         452214 ave      452214 max      452214 min
Histogram: 1 0 0 0 0 0 0 0 0 0

Total # of neighbors = 452214
Ave neighs/atom = 3.5329219
Neighbor list builds = 296
Dangerous builds = 0
Total wall time: 0:01:50
Intel(R) VTune(TM) Profiler 2022.2.0 collection completed successfully. Use the "aps --report /home/ubuntu/lammps/bench/aps_result_20220703" command to generate textual and HTML reports for the profiling session.
