LAMMPS (7 Jan 2022)
  using 1 OpenMP thread(s) per MPI task
Reading data file ...
  orthogonal box = (-16.796 -16.796 -16.796) to (16.796 16.796 16.796)
  4 by 4 by 4 MPI processor grid
  reading atoms ...
  32000 atoms
  reading velocities ...
  32000 velocities
  scanning bonds ...
  1 = max bonds/atom
  reading bonds ...
  31680 bonds
Finding 1-2 1-3 1-4 neighbors ...
  special bond factors lj:    0        1        1       
  special bond factors coul:  0        1        1       
     2 = max # of 1-2 neighbors
     2 = max # of special neighbors
  special bonds CPU = 0.008 seconds
  read_data CPU = 0.109 seconds
----------------------------------------------------------
Using INTEL Package without Coprocessor.
Compiler: Intel Classic C++ 20.21.5 / Intel(R) C++ g++ 9.3 mode
SIMD compiler directives: Enabled
Precision: single
----------------------------------------------------------
  generated 0 of 0 mixed pair_coeff terms from geometric mixing rule
Neighbor list info ...
  update every 1 steps, delay 1 steps, check yes
  max neighbors/atom: 2000, page size: 100000
  master list distance cutoff = 1.52
  ghost atom cutoff = 1.52
  binsize = 0.76, bins = 45 45 45
  1 neighbor lists, perpetual/occasional/extra = 1 0 0
  (1) pair lj/cut/intel, perpetual
      attributes: half, newton on, intel
      pair build: half/bin/newton/intel
      stencil: half/bin/3d
      bin: intel
Setting up Verlet run ...
  Unit style    : lj
  Current step  : 0
  Time step     : 0.012
WARNING: Communication cutoff 1.52 is shorter than a bond length based estimate of 1.855. This may lead to errors. (../comm.cpp:723)
Per MPI rank memory allocation (min/avg/max) = 8.362 | 8.541 | 8.712 Mbytes
Step Temp E_pair E_mol TotEng Press 
       0   0.97029772   0.44484083    20.494522    22.394764    4.6721834 
     100   0.96955453   0.44441978    20.502972    22.401678    4.6791493 
Loop time of 0.0258731 on 64 procs for 100 steps with 32000 atoms

Performance: 4007252.165 tau/day, 3865.019 timesteps/s
91.0% CPU use with 64 MPI tasks x 1 OpenMP threads

MPI task timing breakdown:
Section |  min time  |  avg time  |  max time  |%varavg| %total
---------------------------------------------------------------
Pair    | 0.0034874  | 0.004056   | 0.0047697  |   0.5 | 15.68
Bond    | 0.00052432 | 0.00059652 | 0.00065596 |   0.0 |  2.31
Neigh   | 0.0053464  | 0.0054605  | 0.0055762  |   0.1 | 21.10
Comm    | 0.010263   | 0.011147   | 0.011845   |   0.3 | 43.08
Output  | 2.6147e-05 | 2.9632e-05 | 3.6533e-05 |   0.0 |  0.11
Modify  | 0.0026536  | 0.0029826  | 0.0031986  |   0.4 | 11.53
Other   |            | 0.001601   |            |       |  6.19

Nlocal:            500 ave         513 max         484 min
Histogram: 1 4 5 6 8 10 12 12 4 2
Nghost:        764.969 ave         786 max         743 min
Histogram: 1 3 5 19 6 4 14 1 6 5
Neighs:        2928.03 ave        3056 max        2802 min
Histogram: 5 0 11 6 8 13 9 7 2 3

Total # of neighbors = 187394
Ave neighs/atom = 5.8560625
Ave special neighs/atom = 1.98
Neighbor list builds = 25
Dangerous builds = 0
Total wall time: 0:00:00
Intel(R) VTune(TM) Profiler 2022.2.0 collection completed successfully. Use the "aps --report /home/ubuntu/lammps/bench/aps_result_20220601" command to generate textual and HTML reports for the profiling session.
