LAMMPS (7 Jan 2022)
  using 1 OpenMP thread(s) per MPI task
Reading data file ...
  orthogonal box = (-16.796 -16.796 -16.796) to (16.796 16.796 16.796)
  2 by 4 by 4 MPI processor grid
  reading atoms ...
  32000 atoms
  reading velocities ...
  32000 velocities
  scanning bonds ...
  1 = max bonds/atom
  reading bonds ...
  31680 bonds
Finding 1-2 1-3 1-4 neighbors ...
  special bond factors lj:    0        1        1       
  special bond factors coul:  0        1        1       
     2 = max # of 1-2 neighbors
     2 = max # of special neighbors
  special bonds CPU = 0.002 seconds
  read_data CPU = 0.124 seconds
Replicating atoms ...
  orthogonal box = (-16.796 -16.796 -16.796) to (83.98 83.98 83.98)
  4 by 2 by 4 MPI processor grid
  864000 atoms
  855360 bonds
Finding 1-2 1-3 1-4 neighbors ...
  special bond factors lj:    0        1        1       
  special bond factors coul:  0        1        1       
     2 = max # of 1-2 neighbors
     2 = max # of special neighbors
  special bonds CPU = 0.010 seconds
  replicate CPU = 0.027 seconds
----------------------------------------------------------
Using INTEL Package without Coprocessor.
Compiler: Intel Classic C++ 20.21.5 / Intel(R) C++ g++ 9.3 mode
SIMD compiler directives: Enabled
Precision: mixed
----------------------------------------------------------
  generated 0 of 0 mixed pair_coeff terms from geometric mixing rule
Neighbor list info ...
  update every 1 steps, delay 1 steps, check yes
  max neighbors/atom: 2000, page size: 100000
  master list distance cutoff = 1.52
  ghost atom cutoff = 1.52
  binsize = 0.76, bins = 133 133 133
  1 neighbor lists, perpetual/occasional/extra = 1 0 0
  (1) pair lj/cut/intel, perpetual
      attributes: half, newton on, intel
      pair build: half/bin/newton/intel
      stencil: half/bin/3d
      bin: intel
Setting up Verlet run ...
  Unit style    : lj
  Current step  : 0
  Time step     : 0.012
WARNING: Communication cutoff 1.52 is shorter than a bond length based estimate of 1.855. This may lead to errors. (../comm.cpp:723)
Per MPI rank memory allocation (min/avg/max) = 241.9 | 242.4 | 242.9 Mbytes
Step Temp E_pair E_mol TotEng Press 
       0   0.97026852   0.44484092    20.494523    22.394765    4.6721839 
     100   0.97393134   0.44236165    20.501881    22.405138    4.7056167 
     200   0.97860326    0.4440861    20.502388    22.414377    4.6969199 
     300   0.97980641   0.44559851    20.505786    22.421092    4.7105912 
     400   0.98344385   0.44580223    20.507031    22.427998    4.7226882 
     500   0.98521241   0.44695192    20.507951     22.43272    4.7304093 
     600    0.9869855   0.44928035    20.508138    22.437895     4.728766 
     700   0.98812686   0.44893526    20.510332    22.441456    4.7564903 
     800   0.99080321   0.44837967    20.509806    22.444389    4.7626715 
     900   0.99074878   0.44858793    20.511912    22.446622    4.7564237 
    1000   0.99070988   0.45040162    20.512322    22.448787    4.7685525 
    1100    0.9933539   0.45193886    20.511649    22.453617    4.7730884 
    1200   0.99437499   0.45180804    20.512642    22.456011    4.7800195 
    1300   0.99629724   0.45089349    20.513018    22.458355    4.7640036 
    1400   0.99669304   0.45152959    20.513391    22.459958    4.7789704 
    1500   0.99766106   0.45174073    20.513414    22.461645    4.7743739 
    1600   0.99703906   0.45350203     20.51367    22.462729    4.7686848 
    1700   0.99892973   0.45252576    20.513846    22.464764     4.775978 
    1800   0.99761262   0.45320328    20.515478    22.465098    4.7686108 
    1900   0.99904271   0.45310515    20.514916    22.466584    4.7809369 
    2000   0.99940269   0.45366997    20.514473    22.467245    4.7805952 
    2100   0.99967719   0.45353538    20.514496    22.467545    4.8061486 
    2200   0.99918185   0.45336635    20.516345    22.468482    4.7790271 
    2300   0.99900463   0.45317663    20.515904    22.467586    4.7818335 
    2400    0.9997754   0.45343102    20.514733    22.467825     4.790927 
    2500     1.000248   0.45188123    20.514965    22.467216     4.759526 
    2600    1.0004604   0.45350417    20.515023    22.469216    4.7920451 
    2700    1.0012536   0.45341694    20.514566    22.469862    4.8011302 
    2800     1.000289   0.45379986     20.51622    22.470451    4.7818861 
    2900     1.000033   0.45356809     20.51691    22.470526    4.7926808 
    3000    1.0009115    0.4536955    20.515814    22.470875    4.7900135 
    3100   0.99958671    0.4545671    20.516046    22.469992    4.8120689 
    3200     1.001046   0.45305669    20.515353    22.469977      4.78608 
    3300    1.0006187   0.45467632    20.515062    22.470665    4.8004564 
    3400    1.0001549   0.45342706    20.516756    22.470414    4.7951036 
    3500    1.0014573   0.45288639    20.516509    22.471579    4.7853224 
    3600     1.002438   0.45351301    20.514988    22.472156    4.7879593 
    3700    1.0008045   0.45350314    20.517647    22.472355    4.7785982 
    3800    1.0018216   0.45322875    20.517673    22.473632    4.7845994 
    3900    1.0020068   0.45444597    20.515896     22.47335    4.7912743 
    4000    1.0023781   0.45404041    20.515405    22.473011    4.7927643 
    4100    1.0017757   0.45432366    20.515701    22.472686    4.8033755 
    4200    1.0007852   0.45299427    20.516638    22.470809    4.7844152 
    4300    1.0008186   0.45341408    20.516512    22.471153    4.7815859 
    4400    1.0017034   0.45474614    20.514342    22.471642    4.7818603 
    4500    1.0010922   0.45293281    20.515854    22.470423    4.8089741 
    4600    1.0010164   0.45339453    20.516116    22.471034    4.7853026 
    4700   0.99974639   0.45549478    20.516321    22.471433    4.8050947 
    4800    1.0011142   0.45360376    20.517022    22.472295    4.7934685 
    4900    1.0016839   0.45322623    20.515959    22.471709    4.7634209 
    5000    1.0014461   0.45352137    20.515954    22.471643    4.7909069 
    5100    1.0019179   0.45284795    20.516387     22.47211    4.8044979 
    5200    1.0010134   0.45461249     20.51603    22.472161    4.7900223 
    5300     1.001038   0.45380635    20.516359     22.47172    4.7875956 
    5400    1.0010557   0.45373404    20.516753    22.472069    4.7881076 
    5500    1.0017655   0.45401853    20.515476    22.472141    4.7840539 
    5600    1.0006931   0.45514686    20.516579    22.472764    4.8035795 
    5700    1.0011815   0.45346482     20.51619    22.471425     4.805126 
    5800    1.0006681   0.45345323    20.515661    22.470115    4.7867739 
    5900     1.001588   0.45342881    20.514304    22.470113    4.7936902 
    6000    1.0000995    0.4533727    20.515996    22.469517     4.783279 
    6100    1.0005738   0.45210086     20.51584      22.4688    4.7913895 
    6200      1.00012   0.45323088    20.515884    22.469293    4.8006508 
    6300    1.0008482   0.45334438    20.515045     22.46966     4.787349 
    6400    1.0014553   0.45279036    20.515447    22.470419    4.7915248 
    6500    1.0000688   0.45449723    20.516293    22.470892    4.7785874 
    6600    1.0016498   0.45329686    20.515179    22.470949    4.7873361 
    6700    1.0006495   0.45361481     20.51608    22.470667    4.7852375 
    6800    1.0007851    0.4534059    20.515372    22.469954    4.7886271 
    6900   0.99995471   0.45331959    20.516443    22.469693     4.790384 
    7000    1.0000163    0.4534235    20.517298    22.470744    4.7833612 
    7100    1.0011982   0.45358922    20.515396    22.470781    4.7897006 
    7200    1.0002395   0.45404795     20.51773    22.472136    4.8027294 
    7300    1.0014122   0.45359761    20.515306     22.47102    4.7791736 
    7400    1.0009129   0.45395971    20.515813     22.47114    4.7834174 
    7500    1.0014409   0.45368639    20.516019    22.471865    4.7839543 
    7600    1.0019355   0.45504632    20.515123    22.473071    4.8142821 
    7700    1.0031322   0.45347683    20.515301    22.473475    4.8026513 
    7800    1.0015635   0.45411997    20.516251    22.472714    4.7963678 
    7900    1.0015386   0.45471059    20.515288    22.472305    4.8100042 
    8000    1.0020024   0.45340444    20.515498    22.471904    4.8110297 
    8100    1.0005689   0.45385251    20.515867    22.470571    4.7819926 
    8200    1.0001523   0.45349415    20.516476    22.470197    4.8006662 
    8300    1.0010672   0.45281334    20.516003    22.470415    4.7882527 
    8400    1.0009982   0.45505501    20.514357    22.470908     4.800084 
    8500    1.0008403   0.45316122    20.514381    22.468801    4.7990808 
    8600    1.0002936    0.4531124    20.515474    22.469025    4.8054782 
    8700    1.0009339   0.45360302    20.514876    22.469878    4.7908167 
    8800    1.0010316   0.45283173    20.515345    22.469722    4.7811218 
    8900    1.0002942   0.45447983    20.515496    22.470416    4.7924582 
    9000    1.0012501   0.45207595    20.516079    22.470028    4.7906795 
    9100    1.0001746   0.45247434    20.516743    22.469477    4.7949477 
    9200   0.99984977   0.45398735    20.515669    22.469429    4.7916503 
    9300   0.99852017   0.45395567    20.516517    22.468251    4.7876853 
    9400   0.99934851    0.4533587    20.514029    22.466409    4.7954944 
    9500   0.99906432   0.45378673    20.514486    22.466868    4.7970919 
    9600   0.99907449     0.453137    20.514175    22.465922    4.7918594 
    9700    0.9988211   0.45350075    20.515032    22.466763    4.7811616 
    9800   0.99982934   0.45299354    20.514941    22.467676    4.8078724 
    9900   0.99975931   0.45317916    20.515646    22.468462    4.7900169 
   10000   0.99966187    0.4526979    20.516652    22.468841    4.7844497 
Loop time of 73.8376 on 32 procs for 10000 steps with 864000 atoms

Performance: 140416.357 tau/day, 135.432 timesteps/s
99.2% CPU use with 32 MPI tasks x 1 OpenMP threads

MPI task timing breakdown:
Section |  min time  |  avg time  |  max time  |%varavg| %total
---------------------------------------------------------------
Pair    | 18.882     | 19.097     | 19.25      |   2.4 | 25.86
Bond    | 3.2172     | 3.3183     | 3.5353     |   3.4 |  4.49
Neigh   | 18.595     | 18.698     | 18.8       |   1.2 | 25.32
Comm    | 13.78      | 14.034     | 14.407     |   4.0 | 19.01
Output  | 0.012424   | 0.015554   | 0.017673   |   0.9 |  0.02
Modify  | 14.777     | 15.054     | 15.479     |   3.9 | 20.39
Other   |            | 3.62       |            |       |  4.90

Nlocal:          27000 ave       27073 max       26942 min
Histogram: 6 0 2 6 6 3 5 2 0 2
Nghost:        8954.53 ave        9009 max        8883 min
Histogram: 1 3 2 2 4 5 4 4 5 2
Neighs:         158101 ave      158860 max      157388 min
Histogram: 1 3 3 3 9 3 5 2 0 3

Total # of neighbors = 5059241
Ave neighs/atom = 5.855603
Ave special neighs/atom = 1.98
Neighbor list builds = 2742
Dangerous builds = 0
Total wall time: 0:01:14
Intel(R) VTune(TM) Profiler 2022.2.0 collection completed successfully. Use the "aps --report /home/ubuntu/lammps/bench/aps_result_20220703" command to generate textual and HTML reports for the profiling session.
