LAMMPS (7 Jan 2022)
  using 1 OpenMP thread(s) per MPI task
Reading data file ...
  orthogonal box = (0 0 0) to (40 20 37.2886)
  2 by 1 by 2 MPI processor grid
  reading atoms ...
  32000 atoms
  reading velocities ...
  32000 velocities
  read_data CPU = 0.103 seconds
Replicating atoms ...
  orthogonal box = (0 0 0) to (160 80 37.292229)
  2 by 2 by 1 MPI processor grid
  512000 atoms
  replicate CPU = 0.041 seconds
14592 atoms in group bottom
497408 atoms in group active
  generated 0 of 1 mixed pair_coeff terms from geometric mixing rule
Neighbor list info ...
  update every 1 steps, delay 0 steps, check yes
  max neighbors/atom: 2000, page size: 100000
  master list distance cutoff = 1.1
  ghost atom cutoff = 1.1
  binsize = 0.55, bins = 291 146 68
  1 neighbor lists, perpetual/occasional/extra = 1 0 0
  (1) pair gran/hooke/history, perpetual
      attributes: half, newton off, size, history
      pair build: half/size/bin/newtoff
      stencil: full/bin/3d
      bin: standard
Setting up Verlet run ...
  Unit style    : lj
  Current step  : 0
  Time step     : 0.0001
Per MPI rank memory allocation (min/avg/max) = 63.36 | 63.36 | 63.36 Mbytes
Step Atoms KinEng c_1 Volume 
       0   512000     12546226    25618.021    477340.53 
     100   512000     12548673    25137.549    477355.32 
Loop time of 1.23994 on 4 procs for 100 steps with 512000 atoms

Performance: 696.805 tau/day, 80.649 timesteps/s
99.9% CPU use with 4 MPI tasks x 1 OpenMP threads

MPI task timing breakdown:
Section |  min time  |  avg time  |  max time  |%varavg| %total
---------------------------------------------------------------
Pair    | 0.60699    | 0.61344    | 0.61815    |   0.5 | 49.47
Neigh   | 0.16488    | 0.16568    | 0.16689    |   0.2 | 13.36
Comm    | 0.054108   | 0.054396   | 0.054756   |   0.1 |  4.39
Output  | 0.00067171 | 0.00076219 | 0.00086704 |   0.0 |  0.06
Modify  | 0.29746    | 0.30758    | 0.3149     |   1.2 | 24.81
Other   |            | 0.09808    |            |       |  7.91

Nlocal:         128000 ave      128000 max      128000 min
Histogram: 4 0 0 0 0 0 0 0 0 0
Nghost:          10733 ave       10733 max       10733 min
Histogram: 4 0 0 0 0 0 0 0 0 0
Neighs:         452161 ave      452161 max      452161 min
Histogram: 4 0 0 0 0 0 0 0 0 0

Total # of neighbors = 1808644
Ave neighs/atom = 3.5325078
Neighbor list builds = 2
Dangerous builds = 0
Total wall time: 0:00:01
Intel(R) VTune(TM) Profiler 2022.2.0 collection completed successfully. Use the "aps --report /home/ubuntu/lammps/bench/aps_result_20220601" command to generate textual and HTML reports for the profiling session.
