LAMMPS (7 Jan 2022)
  using 1 OpenMP thread(s) per MPI task
Reading data file ...
  orthogonal box = (0 0 0) to (40 20 37.2886)
  2 by 1 by 1 MPI processor grid
  reading atoms ...
  32000 atoms
  reading velocities ...
  32000 velocities
  read_data CPU = 0.134 seconds
912 atoms in group bottom
31088 atoms in group active
  generated 0 of 1 mixed pair_coeff terms from geometric mixing rule
Neighbor list info ...
  update every 1 steps, delay 0 steps, check yes
  max neighbors/atom: 2000, page size: 100000
  master list distance cutoff = 1.1
  ghost atom cutoff = 1.1
  binsize = 0.55, bins = 73 37 68
  1 neighbor lists, perpetual/occasional/extra = 1 0 0
  (1) pair gran/hooke/history, perpetual
      attributes: half, newton off, size, history
      pair build: half/size/bin/newtoff
      stencil: full/bin/3d
      bin: standard
Setting up Verlet run ...
  Unit style    : lj
  Current step  : 0
  Time step     : 0.0001
Per MPI rank memory allocation (min/avg/max) = 15.35 | 15.35 | 15.35 Mbytes
Step Atoms KinEng c_1 Volume 
       0    32000    784139.13    1601.1263    29833.783 
     100    32000    784292.08    1571.0968    29834.707 
     200    32000    784422.71    1573.8634     29836.23 
     300    32000    784563.48    1580.4742    29837.727 
     400    32000    784708.17    1572.2381     29839.15 
     500    32000    784831.77    1564.0479    29840.694 
     600    32000    784971.37    1564.4511    29842.232 
     700    32000     785128.6    1552.4596    29843.695 
     800    32000    785290.26    1555.2209    29845.083 
     900    32000    785460.68    1545.8818    29846.397 
    1000    32000    785572.21    1539.8672    29847.635 
    1100    32000    785702.57    1533.8018    29848.799 
    1200    32000    785822.06    1545.9335    29849.888 
    1300    32000    785929.63    1549.9353    29850.902 
    1400    32000    786011.56    1552.8199    29851.841 
    1500    32000    786107.94    1566.1477    29852.706 
    1600    32000    786190.87    1573.3323    29853.496 
    1700    32000     786268.8    1592.7949    29854.211 
    1800    32000    786324.94    1606.0429    29854.646 
    1900    32000    786375.84    1614.3405    29855.236 
    2000    32000    786433.31    1618.8656    29855.751 
    2100    32000    786487.22    1636.6884    29856.192 
    2200    32000    786552.82    1640.6587    29856.558 
    2300    32000    786614.66    1639.1746    29856.849 
    2400    32000    786690.16    1633.1792    29857.065 
    2500    32000     786750.2    1631.7305    29857.206 
    2600    32000    786796.49    1639.3107    29857.273 
    2700    32000    786838.12    1646.8592    29857.318 
    2800    32000    786859.79    1646.9901    29857.485 
    2900    32000    786892.21    1653.2933    29857.576 
    3000    32000    786908.84    1658.8738    29857.593 
    3100    32000    786943.37    1668.2738    29857.535 
    3200    32000    786989.04    1666.0822    29857.403 
    3300    32000    787052.87    1672.6022    29857.195 
    3400    32000    787121.68    1667.6596    29856.916 
    3500    32000    787198.06    1666.5899    29856.571 
    3600    32000    787282.77    1658.2123    29856.156 
    3700    32000    787346.67    1653.8531    29855.664 
    3800    32000    787390.15    1655.8907    29855.089 
    3900    32000    787431.67    1661.2445    29854.664 
    4000    32000    787480.76    1663.0477    29853.965 
    4100    32000    787510.38    1653.6397    29853.373 
    4200    32000    787525.15    1661.7077     29853.23 
    4300    32000     787541.1    1669.4988    29853.162 
    4400    32000    787564.72    1662.7011     29853.12 
    4500    32000    787559.67    1668.7629    29853.004 
    4600    32000    787572.83    1684.2828    29852.813 
    4700    32000    787590.44    1690.1935    29852.547 
    4800    32000    787611.85    1693.7854    29852.206 
    4900    32000    787631.47    1693.8311     29851.79 
    5000    32000    787668.56    1690.9943      29851.3 
    5100    32000    787694.75    1702.7608    29850.735 
    5200    32000    787736.57     1712.212    29850.094 
    5300    32000    787776.62    1718.1424     29849.38 
    5400    32000    787828.08    1721.9304    29848.606 
    5500    32000    787896.71    1726.9873    29847.761 
    5600    32000     787948.5     1727.374    29846.824 
    5700    32000    788005.48    1725.4411    29846.537 
    5800    32000    788053.32    1727.8835    29846.469 
    5900    32000    788112.95    1732.9381    29846.304 
    6000    32000    788175.14    1736.9018    29846.065 
    6100    32000    788244.03    1738.4901     29845.75 
    6200    32000    788323.02     1724.828    29845.361 
    6300    32000    788393.92    1722.4015    29844.897 
    6400    32000    788466.33    1711.7317    29844.375 
    6500    32000    788538.45     1709.823    29843.783 
    6600    32000    788619.48    1707.5514    29843.113 
    6700    32000    788704.04    1702.5682    29842.355 
    6800    32000    788801.12    1694.7312    29841.523 
    6900    32000    788897.64    1685.1442    29840.616 
    7000    32000    788989.66    1682.5365    29839.634 
    7100    32000    789083.01     1670.693    29838.578 
    7200    32000    789176.48     1658.185    29837.478 
    7300    32000    789252.99     1645.593    29836.334 
    7400    32000    789319.81    1646.0103    29835.115 
    7500    32000     789376.9     1649.925    29833.822 
    7600    32000     789417.5     1656.384    29832.453 
    7700    32000    789452.42    1660.7127     29831.01 
    7800    32000    789472.86    1665.8757    29829.492 
    7900    32000    789507.97     1672.609    29828.438 
    8000    32000    789537.31    1669.8377    29826.795 
    8100    32000    789572.66    1661.5643    29825.077 
    8200    32000    789594.34    1679.1958    29823.285 
    8300    32000    789608.61    1682.9524    29821.418 
    8400    32000    789622.24    1681.0297    29819.476 
    8500    32000    789646.43    1690.9493    29817.459 
    8600    32000    789653.14    1691.5603    29815.367 
    8700    32000    789638.85    1685.9259    29813.201 
    8800    32000     789591.4    1704.0819    29810.982 
    8900    32000    789545.64    1705.5361    29808.735 
    9000    32000    789488.09    1713.6493    29808.226 
    9100    32000    789417.06    1717.8985    29808.951 
    9200    32000    789355.91    1729.8515    29809.605 
    9300    32000    789290.24    1741.1871    29810.188 
    9400    32000    789232.71    1747.8661    29810.701 
    9500    32000    789193.79    1750.2284    29811.144 
    9600    32000    789168.48    1761.5641    29811.516 
    9700    32000    789153.89     1757.133    29811.818 
    9800    32000    789143.74    1747.2677    29812.049 
    9900    32000    789148.98    1750.3903     29812.21 
   10000    32000       789164    1741.8664      29812.3 
Loop time of 15.7517 on 2 procs for 10000 steps with 32000 atoms

Performance: 5485.137 tau/day, 634.854 timesteps/s
99.8% CPU use with 2 MPI tasks x 1 OpenMP threads

MPI task timing breakdown:
Section |  min time  |  avg time  |  max time  |%varavg| %total
---------------------------------------------------------------
Pair    | 8.1424     | 8.1793     | 8.2162     |   1.3 | 51.93
Neigh   | 2.6148     | 2.6185     | 2.6222     |   0.2 | 16.62
Comm    | 1.0112     | 1.0131     | 1.015      |   0.2 |  6.43
Output  | 0.0097416  | 0.0099529  | 0.010164   |   0.2 |  0.06
Modify  | 2.9934     | 3.0127     | 3.032      |   1.1 | 19.13
Other   |            | 0.9181     |            |       |  5.83

Nlocal:          16000 ave       16001 max       15999 min
Histogram: 1 0 0 0 0 0 0 0 0 1
Nghost:         3709.5 ave        3713 max        3706 min
Histogram: 1 0 0 0 0 0 0 0 0 1
Neighs:          58300 ave       58357 max       58243 min
Histogram: 1 0 0 0 0 0 0 0 0 1

Total # of neighbors = 116600
Ave neighs/atom = 3.64375
Neighbor list builds = 295
Dangerous builds = 0
Total wall time: 0:00:15
Intel(R) VTune(TM) Profiler 2022.2.0 collection completed successfully. Use the "aps --report /home/ubuntu/lammps/bench/aps_result_20220703" command to generate textual and HTML reports for the profiling session.
