LAMMPS (7 Jan 2022)
  using 1 OpenMP thread(s) per MPI task
Reading data file ...
  orthogonal box = (-16.796 -16.796 -16.796) to (16.796 16.796 16.796)
  2 by 2 by 2 MPI processor grid
  reading atoms ...
  32000 atoms
  reading velocities ...
  32000 velocities
  scanning bonds ...
  1 = max bonds/atom
  reading bonds ...
  31680 bonds
Finding 1-2 1-3 1-4 neighbors ...
  special bond factors lj:    0        1        1       
  special bond factors coul:  0        1        1       
     2 = max # of 1-2 neighbors
     2 = max # of special neighbors
  special bonds CPU = 0.002 seconds
  read_data CPU = 0.118 seconds
Replicating atoms ...
  orthogonal box = (-16.796 -16.796 -16.796) to (117.572 117.572 117.572)
  2 by 2 by 2 MPI processor grid
  2048000 atoms
  2027520 bonds
Finding 1-2 1-3 1-4 neighbors ...
  special bond factors lj:    0        1        1       
  special bond factors coul:  0        1        1       
     2 = max # of 1-2 neighbors
     2 = max # of special neighbors
  special bonds CPU = 0.062 seconds
  replicate CPU = 0.118 seconds
----------------------------------------------------------
Using INTEL Package without Coprocessor.
Compiler: Intel Classic C++ 20.21.5 / Intel(R) C++ g++ 9.3 mode
SIMD compiler directives: Enabled
Precision: mixed
----------------------------------------------------------
  generated 0 of 0 mixed pair_coeff terms from geometric mixing rule
Neighbor list info ...
  update every 1 steps, delay 1 steps, check yes
  max neighbors/atom: 2000, page size: 100000
  master list distance cutoff = 1.52
  ghost atom cutoff = 1.52
  binsize = 0.76, bins = 177 177 177
  1 neighbor lists, perpetual/occasional/extra = 1 0 0
  (1) pair lj/cut/intel, perpetual
      attributes: half, newton on, intel
      pair build: half/bin/newton/intel
      stencil: half/bin/3d
      bin: intel
Setting up Verlet run ...
  Unit style    : lj
  Current step  : 0
  Time step     : 0.012
WARNING: Communication cutoff 1.52 is shorter than a bond length based estimate of 1.855. This may lead to errors. (../comm.cpp:723)
Per MPI rank memory allocation (min/avg/max) = 2253 | 2253 | 2253 Mbytes
Step Temp E_pair E_mol TotEng Press 
       0   0.97026787     0.444841    20.494523    22.394765    4.6721831 
     100   0.97343339   0.44167018     20.50214     22.40396    4.6867218 
     200   0.97787219   0.44356568    20.503218    22.413592    4.7077987 
     300   0.98065915   0.44495279    20.505144    22.421085    4.7264712 
     400   0.98295392   0.44626802     20.50602    22.426718    4.7360946 
     500   0.98559099   0.44781727    20.507135    22.433338    4.7429462 
     600   0.98748891   0.44792503    20.509135    22.438293    4.7450209 
     700   0.98957686   0.44851435    20.510111     22.44299    4.7508582 
     800   0.99132817   0.44935865    20.510986    22.447337    4.7706831 
     900   0.99263383   0.45016772      20.5109    22.450018    4.7655842 
    1000   0.99396773   0.45094611    20.511488    22.453385    4.7729197 
    1100   0.99439971    0.4517061    20.513051    22.456356    4.7723208 
    1200   0.99547804   0.45142645    20.512925    22.457567    4.7673045 
    1300   0.99616255    0.4521813    20.513195    22.459619    4.7794717 
    1400   0.99609618   0.45130216     20.51432    22.459766    4.7767772 
    1500   0.99667041   0.45259235     20.51378    22.461377     4.784679 
    1600   0.99796548   0.45178968    20.514298    22.463035    4.7875904 
    1700   0.99877662   0.45194683    20.514751    22.464862    4.7787214 
    1800   0.99841281   0.45257831    20.514375    22.464572    4.7873631 
    1900   0.99891733   0.45218517    20.514524    22.465084    4.7852653 
    2000     0.998546   0.45372437    20.515005    22.466547    4.7866058 
    2100   0.99941263   0.45333374    20.514653    22.467105    4.7849095 
    2200   0.99961805   0.45420217    20.515261    22.468889    4.8023714 
    2300    1.0004438   0.45421466    20.514637    22.469517    4.7951858 
    2400    1.0006496    0.4532088    20.515987    22.470169    4.7919789 
    2500    1.0001483   0.45395746    20.514903    22.469082    4.7937732 
    2600    0.9995324   0.45422635     20.51534    22.468864    4.8009766 
    2700    1.0006869   0.45361949    20.514613    22.469262    4.7893921 
    2800    1.0005942   0.45464945     20.51475     22.47029    4.8033906 
    2900    1.0009765   0.45472566    20.515506    22.471696    4.7889194 
    3000    1.0011121   0.45403851    20.516651    22.472357    4.7910396 
    3100     1.001877   0.45338922    20.516188    22.472392    4.7928191 
    3200    1.0008772   0.45422026    20.516818    22.472353    4.7890963 
    3300    1.0009027   0.45455936    20.516364    22.472277     4.797115 
    3400     1.001449   0.45367071    20.515937    22.471781    4.7899765 
    3500    1.0007561   0.45379882    20.516581    22.471514    4.8044666 
    3600    1.0011144   0.45356267    20.515754    22.470988    4.7919757 
    3700    1.0012071   0.45351771    20.516593     22.47192    4.8006481 
    3800    1.0018006   0.45412864    20.515523    22.472351    4.7929288 
    3900     1.000974   0.45431633    20.516329    22.472105    4.7970399 
    4000    1.0014002   0.45380307    20.515966    22.471868    4.7884091 
    4100     1.001337   0.45424341    20.515779    22.472027    4.7925199 
    4200    1.0008121   0.45397611    20.515901    22.471094    4.7866629 
    4300      1.00139   0.45417502    20.515406    22.471666    4.8023509 
    4400    1.0015476   0.45402836    20.515043    22.471392    4.7852375 
    4500    1.0008873   0.45385606     20.51529    22.470476     4.790521 
    4600    1.0009311   0.45328252     20.51568    22.470359    4.7811571 
    4700    1.0008247   0.45356117    20.515855    22.470653    4.7949798 
    4800    1.0008739   0.45329769    20.516308    22.470916    4.7903694 
    4900    1.0006689   0.45373225    20.516186    22.470921    4.7909193 
    5000    1.0014444   0.45360959    20.516203    22.471979    4.7969411 
    5100    1.0015961   0.45400835    20.516129    22.472531    4.7952916 
    5200    1.0006066    0.4546045    20.516177    22.471691    4.7941571 
    5300     1.001715    0.4535612    20.516008    22.472141    4.7922886 
    5400     1.001925   0.45432403    20.515833    22.473044    4.7806721 
    5500    1.0008957   0.45491869    20.516391    22.472653    4.7980318 
    5600    1.0018871   0.45394274    20.515925    22.472697    4.7883682 
    5700    1.0022762   0.45467915    20.515066    22.473158    4.7871706 
    5800    1.0021638   0.45375371    20.516017    22.473016    4.7987901 
    5900    1.0019233   0.45392974    20.515416     22.47223    4.7984752 
    6000    1.0013706   0.45429757    20.516099    22.472452    4.8061826 
    6100    1.0016983    0.4544061    20.516099    22.473052    4.7958028 
    6200    1.0014864   0.45337532    20.515695    22.471299    4.7939177 
    6300    1.0000766    0.4540468    20.516184    22.470345    4.7906755 
    6400    1.0008636   0.45312929    20.515876      22.4703    4.7866418 
    6500    1.0005799   0.45312727    20.516219    22.470215    4.7945869 
    6600    1.0006088   0.45338843    20.515916    22.470217    4.7902798 
    6700    1.0016832   0.45331378    20.515648    22.471486    4.7897068 
    6800    1.0013943   0.45364278    20.514983    22.470717    4.7942138 
    6900    1.0015985   0.45328198    20.515597    22.471276    4.7923298 
    7000    1.0010301   0.45327467    20.515914    22.470733    4.7898892 
    7100    1.0006555   0.45398713     20.51568    22.470649    4.7878838 
    7200    1.0014479   0.45328387    20.515138    22.470592    4.7868478 
    7300     1.001286   0.45320118    20.515115    22.470245     4.781701 
    7400    1.0007937   0.45366267    20.515015    22.469867    4.7926251 
    7500    1.0004887    0.4532332    20.516369    22.470335    4.7876672 
    7600    1.0000317   0.45421376    20.516141    22.470402    4.7968289 
    7700    1.0008941   0.45303847     20.51546    22.469839      4.79923 
    7800    1.0005408   0.45326056    20.516129      22.4702    4.7886414 
    7900    1.0006232   0.45413393    20.515382     22.47045    4.7921052 
    8000    1.0004074   0.45391179    20.515674    22.470196    4.8035954 
    8100    1.0007951   0.45388502    20.515358    22.470435    4.7926117 
    8200    1.0003904   0.45450176    20.515677    22.470764    4.8022863 
    8300    1.0007609   0.45405248    20.515846    22.471039    4.7921932 
    8400    1.0009462   0.45383692    20.515437    22.470692    4.7914227 
    8500    1.0010363   0.45397127    20.515343    22.470868     4.790001 
    8600    1.0004021   0.45448522    20.515489    22.470577    4.7934188 
    8700      1.00076   0.45343148    20.516522    22.471092    4.7934228 
    8800    1.0009474   0.45351664    20.516314    22.471251    4.7998669 
    8900    1.0018909   0.45372028    20.515589    22.472145    4.7867461 
    9000    1.0019842   0.45341979    20.515889    22.472284    4.7898013 
    9100    1.0010058   0.45417941    20.515836    22.471524      4.78573 
    9200    1.0009549   0.45412225    20.514904    22.470458    4.7941862 
    9300    1.0008313   0.45348803    20.515907    22.470641     4.790165 
    9400    1.0009797   0.45360928    20.515908    22.470986    4.7909428 
    9500    1.0008188   0.45480187    20.515279    22.471309    4.8019291 
    9600    1.0003766   0.45439613     20.51604       22.471      4.80334 
    9700    1.0008668   0.45408602    20.515839    22.471225    4.8020643 
    9800    1.0004038   0.45373288    20.515708    22.470046    4.7962817 
    9900    1.0007428   0.45379606    20.515665    22.470575    4.7951831 
   10000     1.000903   0.45409927    20.516455    22.471908    4.7925089 
Loop time of 719.544 on 8 procs for 10000 steps with 2048000 atoms

Performance: 14409.134 tau/day, 13.898 timesteps/s
98.9% CPU use with 8 MPI tasks x 1 OpenMP threads

MPI task timing breakdown:
Section |  min time  |  avg time  |  max time  |%varavg| %total
---------------------------------------------------------------
Pair    | 176.73     | 177.15     | 177.78     |   2.6 | 24.62
Bond    | 35.98      | 36.223     | 36.573     |   3.0 |  5.03
Neigh   | 165.76     | 165.94     | 166.07     |   0.7 | 23.06
Comm    | 169        | 170.32     | 171.22     |   5.1 | 23.67
Output  | 0.073098   | 0.133      | 0.15188    |   7.2 |  0.02
Modify  | 137.64     | 140.63     | 148.61     |  29.7 | 19.54
Other   |            | 29.14      |            |       |  4.05

Nlocal:         256000 ave      256201 max      255896 min
Histogram: 3 1 0 1 0 1 1 0 0 1
Nghost:          36363 ave       36455 max       36172 min
Histogram: 1 0 0 0 0 0 2 2 2 1
Neighs:      1.499e+06 ave 1.50169e+06 max 1.49669e+06 min
Histogram: 1 0 2 1 0 1 2 0 0 1

Total # of neighbors = 11991993
Ave neighs/atom = 5.8554653
Ave special neighs/atom = 1.98
Neighbor list builds = 2957
Dangerous builds = 0
Total wall time: 0:12:00
Intel(R) VTune(TM) Profiler 2022.2.0 collection completed successfully. Use the "aps --report /home/ubuntu/lammps/bench/aps_result_20220703" command to generate textual and HTML reports for the profiling session.
