LAMMPS (7 Jan 2022)
  using 1 OpenMP thread(s) per MPI task
Reading data file ...
  orthogonal box = (-16.796 -16.796 -16.796) to (16.796 16.796 16.796)
  2 by 2 by 2 MPI processor grid
  reading atoms ...
  32000 atoms
  reading velocities ...
  32000 velocities
  scanning bonds ...
  1 = max bonds/atom
  reading bonds ...
  31680 bonds
Finding 1-2 1-3 1-4 neighbors ...
  special bond factors lj:    0        1        1       
  special bond factors coul:  0        1        1       
     2 = max # of 1-2 neighbors
     2 = max # of special neighbors
  special bonds CPU = 0.002 seconds
  read_data CPU = 0.168 seconds
Replicating atoms ...
  orthogonal box = (-16.796 -16.796 -16.796) to (50.388 50.388 50.388)
  2 by 2 by 2 MPI processor grid
  256000 atoms
  253440 bonds
Finding 1-2 1-3 1-4 neighbors ...
  special bond factors lj:    0        1        1       
  special bond factors coul:  0        1        1       
     2 = max # of 1-2 neighbors
     2 = max # of special neighbors
  special bonds CPU = 0.007 seconds
  replicate CPU = 0.034 seconds
----------------------------------------------------------
Using INTEL Package without Coprocessor.
Compiler: Intel Classic C++ 20.21.5 / Intel(R) C++ g++ 9.3 mode
SIMD compiler directives: Enabled
Precision: double
----------------------------------------------------------
  generated 0 of 0 mixed pair_coeff terms from geometric mixing rule
Neighbor list info ...
  update every 1 steps, delay 1 steps, check yes
  max neighbors/atom: 2000, page size: 100000
  master list distance cutoff = 1.52
  ghost atom cutoff = 1.52
  binsize = 0.76, bins = 89 89 89
  1 neighbor lists, perpetual/occasional/extra = 1 0 0
  (1) pair lj/cut/intel, perpetual
      attributes: half, newton on, intel
      pair build: half/bin/newton/intel
      stencil: half/bin/3d
      bin: intel
Setting up Verlet run ...
  Unit style    : lj
  Current step  : 0
  Time step     : 0.012
WARNING: Communication cutoff 1.52 is shorter than a bond length based estimate of 1.855. This may lead to errors. (../comm.cpp:723)
Per MPI rank memory allocation (min/avg/max) = 286.4 | 286.4 | 286.4 Mbytes
Step Temp E_pair E_mol TotEng Press 
       0   0.97027119   0.44484087    20.494523    22.394765    4.6721833 
     100   0.97268094   0.44193818    20.502494    22.403448    4.6897558 
Loop time of 3.34873 on 8 procs for 100 steps with 256000 atoms

Performance: 30960.969 tau/day, 29.862 timesteps/s
78.5% CPU use with 8 MPI tasks x 1 OpenMP threads

MPI task timing breakdown:
Section |  min time  |  avg time  |  max time  |%varavg| %total
---------------------------------------------------------------
Pair    | 0.13501    | 0.15749    | 0.23836    |   8.8 |  4.70
Bond    | 0.033915   | 0.036028   | 0.03753    |   0.6 |  1.08
Neigh   | 0.55611    | 0.62941    | 0.69159    |   7.8 | 18.80
Comm    | 0.81399    | 1.1089     | 1.4361     |  23.4 | 33.11
Output  | 7.7233e-05 | 8.7187e-05 | 9.2314e-05 |   0.0 |  0.00
Modify  | 0.17219    | 0.20884    | 0.32254    |  12.3 |  6.24
Other   |            | 1.208      |            |       | 36.07

Nlocal:          32000 ave       32036 max       31960 min
Histogram: 1 0 0 3 0 0 1 1 1 1
Nghost:        9514.25 ave        9598 max        9483 min
Histogram: 3 1 2 1 0 0 0 0 0 1
Neighs:         187454 ave      187718 max      186944 min
Histogram: 1 0 0 1 0 2 0 0 1 3

Total # of neighbors = 1499630
Ave neighs/atom = 5.8579297
Ave special neighs/atom = 1.98
Neighbor list builds = 25
Dangerous builds = 0
Total wall time: 0:00:03
Intel(R) VTune(TM) Profiler 2022.2.0 collection completed successfully. Use the "aps --report /home/ubuntu/lammps/bench/aps_result_20220531" command to generate textual and HTML reports for the profiling session.
