LAMMPS (7 Jan 2022)
  using 1 OpenMP thread(s) per MPI task
New timer settings: style=full  mode=nosync  timeout=off
Reading data file ...
  orthogonal box = (-16.796 -16.796 -16.796) to (16.796 16.796 16.796)
  2 by 2 by 2 MPI processor grid
  reading atoms ...
  32000 atoms
  reading velocities ...
  32000 velocities
  scanning bonds ...
  1 = max bonds/atom
  reading bonds ...
  31680 bonds
Finding 1-2 1-3 1-4 neighbors ...
  special bond factors lj:    0        1        1       
  special bond factors coul:  0        1        1       
     2 = max # of 1-2 neighbors
     2 = max # of special neighbors
  special bonds CPU = 0.003 seconds
  read_data CPU = 0.112 seconds
Replicating atoms ...
  orthogonal box = (-16.796 -16.796 -16.796) to (117.572 117.572 117.572)
  2 by 2 by 2 MPI processor grid
  2048000 atoms
  2027520 bonds
Finding 1-2 1-3 1-4 neighbors ...
  special bond factors lj:    0        1        1       
  special bond factors coul:  0        1        1       
     2 = max # of 1-2 neighbors
     2 = max # of special neighbors
  special bonds CPU = 0.077 seconds
  replicate CPU = 0.141 seconds
----------------------------------------------------------
Using INTEL Package without Coprocessor.
Compiler: Intel Classic C++ 20.21.5 / Intel(R) C++ g++ 9.3 mode
SIMD compiler directives: Enabled
Precision: mixed
----------------------------------------------------------
  generated 0 of 0 mixed pair_coeff terms from geometric mixing rule
Neighbor list info ...
  update every 1 steps, delay 1 steps, check yes
  max neighbors/atom: 2000, page size: 100000
  master list distance cutoff = 1.52
  ghost atom cutoff = 1.52
  binsize = 0.76, bins = 177 177 177
  1 neighbor lists, perpetual/occasional/extra = 1 0 0
  (1) pair lj/cut/intel, perpetual
      attributes: half, newton on, intel
      pair build: half/bin/newton/intel
      stencil: half/bin/3d
      bin: intel
Setting up Verlet run ...
  Unit style    : lj
  Current step  : 0
  Time step     : 0.012
WARNING: Communication cutoff 1.52 is shorter than a bond length based estimate of 1.855. This may lead to errors. (../comm.cpp:723)
Per MPI rank memory allocation (min/avg/max) = 2253 | 2253 | 2253 Mbytes
Step Temp E_pair E_mol TotEng Press 
       0   0.97026787     0.444841    20.494523    22.394765    4.6721831 
     100   0.97343339   0.44167018     20.50214     22.40396    4.6867218 
Loop time of 7.49156 on 8 procs for 100 steps with 2048000 atoms

Performance: 13839.579 tau/day, 13.348 timesteps/s
98.5% CPU use with 8 MPI tasks x 1 OpenMP threads

MPI task timing breakdown:
Section |  min time  |  avg time  |  max time  |%varavg|  %CPU | %total
-----------------------------------------------------------------------
Pair    | 1.8675     | 1.9001     | 1.97       |   2.2 |  99.7 | 25.36
Bond    | 0.39206    | 0.39996    | 0.41701    |   1.2 |  99.7 |  5.34
Neigh   | 1.6136     | 1.617      | 1.6185     |   0.1 |  99.7 | 21.58
Comm    | 1.6392     | 1.733      | 1.7788     |   3.1 |  95.3 | 23.13
Output  | 0.00073268 | 0.00098451 | 0.0010935  |   0.0 | 100.0 |  0.01
Modify  | 1.5023     | 1.5362     | 1.6        |   2.3 |  99.1 | 20.51
Other   |            | 0.3043     |            |       |       |  4.06

Nlocal:         256000 ave      256071 max      255925 min
Histogram: 2 0 1 0 0 2 0 0 2 1
Nghost:        36331.1 ave       36456 max       36226 min
Histogram: 2 0 0 2 1 0 1 1 0 1
Neighs:    1.49993e+06 ave 1.50078e+06 max 1.49896e+06 min
Histogram: 1 1 1 0 1 0 0 2 1 1

Total # of neighbors = 11999414
Ave neighs/atom = 5.8590889
Ave special neighs/atom = 1.98
Neighbor list builds = 26
Dangerous builds = 0
Total wall time: 0:00:08
Intel(R) VTune(TM) Profiler 2022.2.0 collection completed successfully. Use the "aps --report /home/ubuntu/lammps/bench/aps_result_20220519" command to generate textual and HTML reports for the profiling session.
