LAMMPS (7 Jan 2022)
  using 1 OpenMP thread(s) per MPI task
Reading data file ...
  orthogonal box = (0 0 0) to (40 20 37.2886)
  4 by 2 by 2 MPI processor grid
  reading atoms ...
  32000 atoms
  reading velocities ...
  32000 velocities
  read_data CPU = 0.093 seconds
Replicating atoms ...
  orthogonal box = (0 0 0) to (160 80 37.292229)
  4 by 4 by 1 MPI processor grid
  512000 atoms
  replicate CPU = 0.032 seconds
14592 atoms in group bottom
497408 atoms in group active
  generated 0 of 1 mixed pair_coeff terms from geometric mixing rule
Neighbor list info ...
  update every 1 steps, delay 0 steps, check yes
  max neighbors/atom: 2000, page size: 100000
  master list distance cutoff = 1.1
  ghost atom cutoff = 1.1
  binsize = 0.55, bins = 291 146 68
  1 neighbor lists, perpetual/occasional/extra = 1 0 0
  (1) pair gran/hooke/history, perpetual
      attributes: half, newton off, size, history
      pair build: half/size/bin/newtoff
      stencil: full/bin/3d
      bin: standard
Setting up Verlet run ...
  Unit style    : lj
  Current step  : 0
  Time step     : 0.0001
Per MPI rank memory allocation (min/avg/max) = 23.78 | 23.78 | 23.78 Mbytes
Step Atoms KinEng c_1 Volume 
       0   512000     12546226    25618.021    477340.53 
     100   512000     12548673    25137.549    477355.32 
Loop time of 0.390809 on 16 procs for 100 steps with 512000 atoms

Performance: 2210.798 tau/day, 255.879 timesteps/s
99.8% CPU use with 16 MPI tasks x 1 OpenMP threads

MPI task timing breakdown:
Section |  min time  |  avg time  |  max time  |%varavg| %total
---------------------------------------------------------------
Pair    | 0.18328    | 0.18542    | 0.18745    |   0.3 | 47.45
Neigh   | 0.042077   | 0.042292   | 0.043192   |   0.1 | 10.82
Comm    | 0.030768   | 0.032015   | 0.033126   |   0.4 |  8.19
Output  | 0.00023925 | 0.00026926 | 0.00030361 |   0.0 |  0.07
Modify  | 0.084906   | 0.090717   | 0.097212   |   1.1 | 23.21
Other   |            | 0.04009    |            |       | 10.26

Nlocal:          32000 ave       32000 max       32000 min
Histogram: 16 0 0 0 0 0 0 0 0 0
Nghost:           5463 ave        5463 max        5463 min
Histogram: 16 0 0 0 0 0 0 0 0 0
Neighs:         115133 ave      115133 max      115133 min
Histogram: 16 0 0 0 0 0 0 0 0 0

Total # of neighbors = 1842128
Ave neighs/atom = 3.5979062
Neighbor list builds = 2
Dangerous builds = 0
Total wall time: 0:00:00
Intel(R) VTune(TM) Profiler 2022.2.0 collection completed successfully. Use the "aps --report /home/ubuntu/lammps/bench/aps_result_20220601" command to generate textual and HTML reports for the profiling session.
