LAMMPS (7 Jan 2022)
  using 1 OpenMP thread(s) per MPI task
Reading data file ...
  orthogonal box = (-16.796 -16.796 -16.796) to (16.796 16.796 16.796)
  1 by 2 by 2 MPI processor grid
  reading atoms ...
  32000 atoms
  reading velocities ...
  32000 velocities
  scanning bonds ...
  1 = max bonds/atom
  reading bonds ...
  31680 bonds
Finding 1-2 1-3 1-4 neighbors ...
  special bond factors lj:    0        1        1       
  special bond factors coul:  0        1        1       
     2 = max # of 1-2 neighbors
     2 = max # of special neighbors
  special bonds CPU = 0.002 seconds
  read_data CPU = 0.231 seconds
Replicating atoms ...
  orthogonal box = (-16.796 -16.796 -16.796) to (117.572 117.572 117.572)
  1 by 2 by 2 MPI processor grid
  2048000 atoms
  2027520 bonds
Finding 1-2 1-3 1-4 neighbors ...
  special bond factors lj:    0        1        1       
  special bond factors coul:  0        1        1       
     2 = max # of 1-2 neighbors
     2 = max # of special neighbors
  special bonds CPU = 0.225 seconds
  replicate CPU = 0.377 seconds
----------------------------------------------------------
Using INTEL Package without Coprocessor.
Compiler: Intel Classic C++ 20.21.5 / Intel(R) C++ g++ 9.3 mode
SIMD compiler directives: Enabled
Precision: double
----------------------------------------------------------
  generated 0 of 0 mixed pair_coeff terms from geometric mixing rule
Neighbor list info ...
  update every 1 steps, delay 1 steps, check yes
  max neighbors/atom: 2000, page size: 100000
  master list distance cutoff = 1.52
  ghost atom cutoff = 1.52
  binsize = 0.76, bins = 177 177 177
  1 neighbor lists, perpetual/occasional/extra = 1 0 0
  (1) pair lj/cut/intel, perpetual
      attributes: half, newton on, intel
      pair build: half/bin/newton/intel
      stencil: half/bin/3d
      bin: intel
Setting up Verlet run ...
  Unit style    : lj
  Current step  : 0
  Time step     : 0.012
WARNING: Communication cutoff 1.52 is shorter than a bond length based estimate of 1.855. This may lead to errors. (../comm.cpp:723)
Per MPI rank memory allocation (min/avg/max) = 4511 | 4511 | 4511 Mbytes
Step Temp E_pair E_mol TotEng Press 
       0   0.97026787   0.44484087    20.494523    22.394765    4.6721833 
     100   0.97338663   0.44140402    20.502183    22.403667    4.6835734 
Loop time of 27.0079 on 4 procs for 100 steps with 2048000 atoms

Performance: 3838.874 tau/day, 3.703 timesteps/s
69.8% CPU use with 4 MPI tasks x 1 OpenMP threads

MPI task timing breakdown:
Section |  min time  |  avg time  |  max time  |%varavg| %total
---------------------------------------------------------------
Pair    | 2.5862     | 3.7913     | 5.0194     |  61.5 | 14.04
Bond    | 0.77675    | 1.291      | 1.9057     |  45.4 |  4.78
Neigh   | 6.49       | 6.5306     | 6.5469     |   0.9 | 24.18
Comm    | 6.8246     | 8.7308     | 10.54      |  61.0 | 32.33
Output  | 0.02913    | 0.037238   | 0.04536    |   4.2 |  0.14
Modify  | 2.6994     | 3.9945     | 5.4486     |  65.0 | 14.79
Other   |            | 2.632      |            |       |  9.75

Nlocal:         512000 ave      512060 max      511964 min
Histogram: 1 0 2 0 0 0 0 0 0 1
Nghost:        59970.2 ave       59998 max       59913 min
Histogram: 1 0 0 0 0 0 0 1 0 2
Neighs:    2.99911e+06 ave 2.99976e+06 max 2.99846e+06 min
Histogram: 1 0 0 0 2 0 0 0 0 1

Total # of neighbors = 11996424
Ave neighs/atom = 5.8576289
Ave special neighs/atom = 1.98
Neighbor list builds = 26
Dangerous builds = 0
Total wall time: 0:00:28
Intel(R) VTune(TM) Profiler 2022.2.0 collection completed successfully. Use the "aps --report /home/ubuntu/lammps/bench/aps_result_20220531" command to generate textual and HTML reports for the profiling session.
