LAMMPS (7 Jan 2022)
  using 1 OpenMP thread(s) per MPI task
Reading data file ...
  orthogonal box = (-16.796 -16.796 -16.796) to (16.796 16.796 16.796)
  1 by 2 by 2 MPI processor grid
  reading atoms ...
  32000 atoms
  reading velocities ...
  32000 velocities
  scanning bonds ...
  1 = max bonds/atom
  reading bonds ...
  31680 bonds
Finding 1-2 1-3 1-4 neighbors ...
  special bond factors lj:    0        1        1       
  special bond factors coul:  0        1        1       
     2 = max # of 1-2 neighbors
     2 = max # of special neighbors
  special bonds CPU = 0.002 seconds
  read_data CPU = 0.196 seconds
----------------------------------------------------------
Using INTEL Package without Coprocessor.
Compiler: Intel Classic C++ 20.21.5 / Intel(R) C++ g++ 9.3 mode
SIMD compiler directives: Enabled
Precision: single
----------------------------------------------------------
  generated 0 of 0 mixed pair_coeff terms from geometric mixing rule
Neighbor list info ...
  update every 1 steps, delay 1 steps, check yes
  max neighbors/atom: 2000, page size: 100000
  master list distance cutoff = 1.52
  ghost atom cutoff = 1.52
  binsize = 0.76, bins = 45 45 45
  1 neighbor lists, perpetual/occasional/extra = 1 0 0
  (1) pair lj/cut/intel, perpetual
      attributes: half, newton on, intel
      pair build: half/bin/newton/intel
      stencil: half/bin/3d
      bin: intel
Setting up Verlet run ...
  Unit style    : lj
  Current step  : 0
  Time step     : 0.012
WARNING: Communication cutoff 1.52 is shorter than a bond length based estimate of 1.855. This may lead to errors. (../comm.cpp:723)
Per MPI rank memory allocation (min/avg/max) = 72.3 | 72.43 | 72.61 Mbytes
Step Temp E_pair E_mol TotEng Press 
       0   0.97029772   0.44484087    20.494499    22.394741    4.6721828 
     100   0.97337281   0.44171845    20.504677    22.406409    4.7064676 
Loop time of 1.71971 on 4 procs for 100 steps with 32000 atoms

Performance: 60289.233 tau/day, 58.149 timesteps/s
63.0% CPU use with 4 MPI tasks x 1 OpenMP threads

MPI task timing breakdown:
Section |  min time  |  avg time  |  max time  |%varavg| %total
---------------------------------------------------------------
Pair    | 0.047933   | 0.078349   | 0.14396    |  13.7 |  4.56
Bond    | 0.0071581  | 0.0082318  | 0.0091514  |   1.0 |  0.48
Neigh   | 0.14832    | 0.17444    | 0.20056    |   4.9 | 10.14
Comm    | 0.71545    | 0.83174    | 0.88609    |   7.5 | 48.37
Output  | 3.4967e-05 | 9.0942e-05 | 0.00014999 |   0.0 |  0.01
Modify  | 0.038208   | 0.071784   | 0.15045    |  17.0 |  4.17
Other   |            | 0.5551     |            |       | 32.28

Nlocal:           8000 ave        8046 max        7964 min
Histogram: 1 0 1 0 0 1 0 0 0 1
Nghost:           4171 ave        4197 max        4145 min
Histogram: 1 0 0 0 1 1 0 0 0 1
Neighs:        46925.5 ave       47405 max       46625 min
Histogram: 1 1 0 0 1 0 0 0 0 1

Total # of neighbors = 187702
Ave neighs/atom = 5.8656875
Ave special neighs/atom = 1.98
Neighbor list builds = 25
Dangerous builds = 0
Total wall time: 0:00:01
Intel(R) VTune(TM) Profiler 2022.2.0 collection completed successfully. Use the "aps --report /home/ubuntu/lammps/bench/aps_result_20220531" command to generate textual and HTML reports for the profiling session.
