LAMMPS (7 Jan 2022)
  using 1 OpenMP thread(s) per MPI task
Reading data file ...
  orthogonal box = (-16.796 -16.796 -16.796) to (16.796 16.796 16.796)
  4 by 4 by 4 MPI processor grid
  reading atoms ...
  32000 atoms
  reading velocities ...
  32000 velocities
  scanning bonds ...
  1 = max bonds/atom
  reading bonds ...
  31680 bonds
Finding 1-2 1-3 1-4 neighbors ...
  special bond factors lj:    0        1        1       
  special bond factors coul:  0        1        1       
     2 = max # of 1-2 neighbors
     2 = max # of special neighbors
  special bonds CPU = 0.028 seconds
  read_data CPU = 0.222 seconds
Replicating atoms ...
  orthogonal box = (-16.796 -16.796 -16.796) to (50.388 50.388 50.388)
  4 by 4 by 4 MPI processor grid
  256000 atoms
  253440 bonds
Finding 1-2 1-3 1-4 neighbors ...
  special bond factors lj:    0        1        1       
  special bond factors coul:  0        1        1       
     2 = max # of 1-2 neighbors
     2 = max # of special neighbors
  special bonds CPU = 0.021 seconds
  replicate CPU = 0.116 seconds
----------------------------------------------------------
Using INTEL Package without Coprocessor.
Compiler: Intel Classic C++ 20.21.5 / Intel(R) C++ g++ 9.3 mode
SIMD compiler directives: Enabled
Precision: double
----------------------------------------------------------
  generated 0 of 0 mixed pair_coeff terms from geometric mixing rule
Neighbor list info ...
  update every 1 steps, delay 1 steps, check yes
  max neighbors/atom: 2000, page size: 100000
  master list distance cutoff = 1.52
  ghost atom cutoff = 1.52
  binsize = 0.76, bins = 89 89 89
  1 neighbor lists, perpetual/occasional/extra = 1 0 0
  (1) pair lj/cut/intel, perpetual
      attributes: half, newton on, intel
      pair build: half/bin/newton/intel
      stencil: half/bin/3d
      bin: intel
Setting up Verlet run ...
  Unit style    : lj
  Current step  : 0
  Time step     : 0.012
WARNING: Communication cutoff 1.52 is shorter than a bond length based estimate of 1.855. This may lead to errors. (../comm.cpp:723)
Per MPI rank memory allocation (min/avg/max) = 38.77 | 38.96 | 39.06 Mbytes
Step Temp E_pair E_mol TotEng Press 
       0   0.97027119   0.44484087    20.494523    22.394765    4.6721833 
     100   0.97541541   0.44300766    20.498615     22.40474    4.7089297 
Loop time of 0.554713 on 64 procs for 100 steps with 256000 atoms

Performance: 186907.427 tau/day, 180.273 timesteps/s
90.1% CPU use with 64 MPI tasks x 1 OpenMP threads

MPI task timing breakdown:
Section |  min time  |  avg time  |  max time  |%varavg| %total
---------------------------------------------------------------
Pair    | 0.015515   | 0.019579   | 0.0648     |   4.3 |  3.53
Bond    | 0.0037901  | 0.0051605  | 0.036009   |   6.1 |  0.93
Neigh   | 0.051191   | 0.064431   | 0.079666   |   3.9 | 11.62
Comm    | 0.059039   | 0.14735    | 0.26097    |  16.3 | 26.56
Output  | 3.8353e-05 | 7.7407e-05 | 0.0001185  |   0.0 |  0.01
Modify  | 0.019429   | 0.02269    | 0.03584    |   2.2 |  4.09
Other   |            | 0.2954     |            |       | 53.26

Nlocal:           4000 ave        4038 max        3962 min
Histogram: 2 3 4 14 10 9 11 5 3 3
Nghost:        2588.98 ave        2629 max        2549 min
Histogram: 3 2 5 9 10 16 8 5 3 3
Neighs:        23428.7 ave       23804 max       23041 min
Histogram: 2 1 9 8 15 9 7 5 3 5

Total # of neighbors = 1499437
Ave neighs/atom = 5.8571758
Ave special neighs/atom = 1.98
Neighbor list builds = 25
Dangerous builds = 0
Total wall time: 0:00:01
Intel(R) VTune(TM) Profiler 2022.2.0 collection completed successfully. Use the "aps --report /home/ubuntu/lammps/bench/aps_result_20220531" command to generate textual and HTML reports for the profiling session.
