LAMMPS (7 Jan 2022)
  using 1 OpenMP thread(s) per MPI task
Reading data file ...
  orthogonal box = (0 0 0) to (40 20 37.2886)
  1 by 1 by 1 MPI processor grid
  reading atoms ...
  32000 atoms
  reading velocities ...
  32000 velocities
  read_data CPU = 0.117 seconds
Replicating atoms ...
  orthogonal box = (0 0 0) to (120 60 37.292229)
  1 by 1 by 1 MPI processor grid
  288000 atoms
  replicate CPU = 0.029 seconds
8208 atoms in group bottom
279792 atoms in group active
  generated 0 of 1 mixed pair_coeff terms from geometric mixing rule
Neighbor list info ...
  update every 1 steps, delay 0 steps, check yes
  max neighbors/atom: 2000, page size: 100000
  master list distance cutoff = 1.1
  ghost atom cutoff = 1.1
  binsize = 0.55, bins = 219 110 68
  1 neighbor lists, perpetual/occasional/extra = 1 0 0
  (1) pair gran/hooke/history, perpetual
      attributes: half, newton off, size, history
      pair build: half/size/bin/newtoff
      stencil: full/bin/3d
      bin: standard
Setting up Verlet run ...
  Unit style    : lj
  Current step  : 0
  Time step     : 0.0001
Per MPI rank memory allocation (min/avg/max) = 131.4 | 131.4 | 131.4 Mbytes
Step Atoms KinEng c_1 Volume 
       0   288000    7057252.2    14410.137    268504.05 
     100   288000    7058628.7    14139.871    268512.37 
     200   288000    7059804.4    14164.771    268526.08 
     300   288000    7061071.3    14224.268    268539.55 
     400   288000    7062373.5    14150.143    268552.35 
     500   288000    7063485.9    14076.431    268566.25 
     600   288000    7064742.3     14080.06    268580.09 
     700   288000    7066157.4    13972.136    268593.26 
     800   288000    7067612.3    13996.988    268605.75 
     900   288000    7069146.1    13912.936    268617.57 
    1000   288000    7070149.9    13858.805    268628.72 
    1100   288000    7071323.1    13804.216    268639.19 
    1200   288000    7072398.5    13913.402    268648.99 
    1300   288000    7073366.7    13949.418    268658.12 
    1400   288000    7074104.1    13975.379    268666.58 
    1500   288000    7074971.5    14095.327    268674.36 
    1600   288000    7075717.8    14160.004    268681.46 
    1700   288000    7076419.2    14335.129     268687.9 
    1800   288000    7076924.5    14454.308    268691.81 
    1900   288000      7077383    14528.876    268697.13 
    2000   288000    7077900.2    14569.617    268701.76 
    2100   288000    7078385.6    14730.117    268705.73 
    2200   288000      7078974    14766.177    268709.02 
    2300   288000    7079530.7    14751.531    268711.64 
    2400   288000    7080208.2    14702.639    268713.59 
    2500   288000    7080752.2    14691.254    268714.86 
    2600   288000    7081160.4    14754.032    268715.46 
    2700   288000    7081506.1    14843.804    268715.87 
    2800   288000    7081710.4    14861.548    268717.37 
    2900   288000    7081973.3    14886.644    268718.19 
    3000   288000    7082087.6    14914.061    268718.34 
    3100   288000    7082373.3    14997.492    268717.82 
    3200   288000      7082691     15088.53    268716.63 
    3300   288000    7083315.8    15066.939    268714.76 
    3400   288000    7083941.6      15024.3    268712.25 
    3500   288000      7084618     15008.66    268709.14 
    3600   288000    7085255.9    14949.496     268705.4 
    3700   288000    7085818.8    14902.263    268701.03 
    3800   288000      7086247    14924.512    268695.86 
    3900   288000    7086671.4    14966.863     268690.6 
    4000   288000    7087089.8    14950.003    268693.48 
    4100   288000    7087367.3    14922.581    268697.23 
    4200   288000    7087548.5    14891.478     268700.3 
    4300   288000    7087695.8    14889.689    268702.71 
    4400   288000    7087797.1    14914.748    268704.44 
    4500   288000    7087826.9    14995.588    268705.49 
    4600   288000    7087867.9    15069.551    268705.88 
    4700   288000    7087944.4    15117.819    268705.59 
    4800   288000    7088074.4    15159.842    268704.63 
    4900   288000    7088258.6    15213.655    268702.99 
    5000   288000    7088453.6    15305.587    268700.68 
    5100   288000    7088688.2    15350.809     268697.7 
    5200   288000    7088929.1    15437.952    268694.05 
    5300   288000    7089235.9    15533.191    268689.72 
    5400   288000      7089630    15590.471    268684.82 
    5500   288000    7090106.2    15589.002    268679.27 
    5600   288000    7090626.4     15585.58    268672.95 
    5700   288000    7091141.1     15582.59    268665.96 
    5800   288000    7091656.7    15569.347    268658.29 
    5900   288000      7092212    15543.726     268650.2 
    6000   288000    7092828.5    15508.014    268641.48 
    6100   288000    7093431.1    15481.824    268632.12 
    6200   288000    7094091.5    15424.763    268622.67 
    6300   288000    7094730.6    15426.107    268618.77 
    6400   288000    7095438.9    15379.317    268614.39 
    6500   288000    7096170.3    15303.808    268609.37 
    6600   288000    7096948.4    15265.497    268603.72 
    6700   288000    7097762.1    15210.087    268597.43 
    6800   288000    7098559.8    15137.089    268590.52 
    6900   288000    7099381.5    15076.619    268582.88 
    7000   288000    7100160.6     15022.07    268574.43 
    7100   288000    7100880.8     14967.08    268565.31 
    7200   288000    7101560.6    14964.802    268555.51 
    7300   288000    7102178.9    14977.754    268553.47 
    7400   288000    7102762.9    14983.634    268550.79 
    7500   288000    7103374.2    14959.127    268547.51 
    7600   288000    7103908.6    14965.132    268543.62 
    7700   288000    7104433.4    14967.755     268539.1 
    7800   288000    7104956.1    14952.297    268533.94 
    7900   288000      7105443    14981.476    268528.15 
    8000   288000    7105914.8    14971.968    268521.72 
    8100   288000    7106310.2     14973.98    268514.66 
    8200   288000    7106663.2    14990.787    268506.97 
    8300   288000    7106934.2    14999.248    268498.64 
    8400   288000    7107209.9    15029.496    268489.68 
    8500   288000    7107477.8    15035.748    268480.08 
    8600   288000    7107703.3     15090.73    268469.85 
    8700   288000    7107921.4    15114.219    268475.66 
    8800   288000    7108116.5    15120.453    268498.37 
    8900   288000      7108168    15151.572    268520.45 
    9000   288000    7108146.2    15209.349    268541.89 
    9100   288000    7108048.2    15232.536    268562.69 
    9200   288000    7107898.4    15269.768    268582.87 
    9300   288000    7107712.3    15278.532     268602.4 
    9400   288000    7107586.3    15305.742    268621.31 
    9500   288000    7107332.7    15331.742    268639.58 
    9600   288000    7107100.5     15366.89    268657.21 
    9700   288000      7106871    15424.407    268674.21 
    9800   288000    7106657.8    15451.756    268690.58 
    9900   288000    7106388.6    15457.801    268706.31 
   10000   288000    7106158.1    15492.482    268721.41 
Loop time of 292.205 on 1 procs for 10000 steps with 288000 atoms

Performance: 295.683 tau/day, 34.223 timesteps/s
100.0% CPU use with 1 MPI tasks x 1 OpenMP threads

MPI task timing breakdown:
Section |  min time  |  avg time  |  max time  |%varavg| %total
---------------------------------------------------------------
Pair    | 161.32     | 161.32     | 161.32     |   0.0 | 55.21
Neigh   | 42.162     | 42.162     | 42.162     |   0.0 | 14.43
Comm    | 5.6469     | 5.6469     | 5.6469     |   0.0 |  1.93
Output  | 0.13339    | 0.13339    | 0.13339    |   0.0 |  0.05
Modify  | 65.041     | 65.041     | 65.041     |   0.0 | 22.26
Other   |            | 17.9       |            |       |  6.13

Nlocal:         288000 ave      288000 max      288000 min
Histogram: 1 0 0 0 0 0 0 0 0 0
Nghost:          16080 ave       16080 max       16080 min
Histogram: 1 0 0 0 0 0 0 0 0 0
Neighs:    1.01158e+06 ave 1.01158e+06 max 1.01158e+06 min
Histogram: 1 0 0 0 0 0 0 0 0 0

Total # of neighbors = 1011583
Ave neighs/atom = 3.512441
Neighbor list builds = 297
Dangerous builds = 0
Total wall time: 0:04:52
Intel(R) VTune(TM) Profiler 2022.2.0 collection completed successfully. Use the "aps --report /home/ubuntu/lammps/bench/aps_result_20220703" command to generate textual and HTML reports for the profiling session.
