LAMMPS (7 Jan 2022)
  using 1 OpenMP thread(s) per MPI task
Reading data file ...
  orthogonal box = (-16.796 -16.796 -16.796) to (16.796 16.796 16.796)
  4 by 4 by 4 MPI processor grid
  reading atoms ...
  32000 atoms
  reading velocities ...
  32000 velocities
  scanning bonds ...
  1 = max bonds/atom
  reading bonds ...
  31680 bonds
Finding 1-2 1-3 1-4 neighbors ...
  special bond factors lj:    0        1        1       
  special bond factors coul:  0        1        1       
     2 = max # of 1-2 neighbors
     2 = max # of special neighbors
  special bonds CPU = 0.007 seconds
  read_data CPU = 0.108 seconds
Replicating atoms ...
  orthogonal box = (-16.796 -16.796 -16.796) to (83.98 83.98 83.98)
  4 by 4 by 4 MPI processor grid
  864000 atoms
  855360 bonds
Finding 1-2 1-3 1-4 neighbors ...
  special bond factors lj:    0        1        1       
  special bond factors coul:  0        1        1       
     2 = max # of 1-2 neighbors
     2 = max # of special neighbors
  special bonds CPU = 0.010 seconds
  replicate CPU = 0.026 seconds
----------------------------------------------------------
Using INTEL Package without Coprocessor.
Compiler: Intel Classic C++ 20.21.5 / Intel(R) C++ g++ 9.3 mode
SIMD compiler directives: Enabled
Precision: double
----------------------------------------------------------
  generated 0 of 0 mixed pair_coeff terms from geometric mixing rule
Neighbor list info ...
  update every 1 steps, delay 1 steps, check yes
  max neighbors/atom: 2000, page size: 100000
  master list distance cutoff = 1.52
  ghost atom cutoff = 1.52
  binsize = 0.76, bins = 133 133 133
  1 neighbor lists, perpetual/occasional/extra = 1 0 0
  (1) pair lj/cut/intel, perpetual
      attributes: half, newton on, intel
      pair build: half/bin/newton/intel
      stencil: half/bin/3d
      bin: intel
Setting up Verlet run ...
  Unit style    : lj
  Current step  : 0
  Time step     : 0.012
WARNING: Communication cutoff 1.52 is shorter than a bond length based estimate of 1.855. This may lead to errors. (../comm.cpp:723)
Per MPI rank memory allocation (min/avg/max) = 123.1 | 123.5 | 123.9 Mbytes
Step Temp E_pair E_mol TotEng Press 
       0   0.97026852   0.44484087    20.494523    22.394765    4.6721833 
     100   0.97414969   0.44085796    20.502603    22.404684    4.6871919 
Loop time of 0.406058 on 64 procs for 100 steps with 864000 atoms

Performance: 255332.878 tau/day, 246.270 timesteps/s
97.7% CPU use with 64 MPI tasks x 1 OpenMP threads

MPI task timing breakdown:
Section |  min time  |  avg time  |  max time  |%varavg| %total
---------------------------------------------------------------
Pair    | 0.066376   | 0.075239   | 0.083944   |   2.3 | 18.53
Bond    | 0.014878   | 0.017581   | 0.020636   |   1.4 |  4.33
Neigh   | 0.11564    | 0.11665    | 0.11776    |   0.2 | 28.73
Comm    | 0.077385   | 0.087981   | 0.099571   |   2.7 | 21.67
Output  | 6.4832e-05 | 0.00017981 | 0.00033424 |   0.0 |  0.04
Modify  | 0.070393   | 0.080942   | 0.090257   |   3.0 | 19.93
Other   |            | 0.02748    |            |       |  6.77

Nlocal:          13500 ave       13560 max       13460 min
Histogram: 7 8 6 11 9 7 11 2 2 1
Nghost:        5502.25 ave        5582 max        5440 min
Histogram: 5 2 7 9 17 13 8 2 0 1
Neighs:        79099.4 ave       79650 max       78580 min
Histogram: 4 5 7 9 5 12 9 7 4 2

Total # of neighbors = 5062359
Ave neighs/atom = 5.8592118
Ave special neighs/atom = 1.98
Neighbor list builds = 26
Dangerous builds = 0
Total wall time: 0:00:00
Intel(R) VTune(TM) Profiler 2022.2.0 collection completed successfully. Use the "aps --report /home/ubuntu/lammps/bench/aps_result_20220601" command to generate textual and HTML reports for the profiling session.
