LAMMPS (7 Jan 2022)
  using 1 OpenMP thread(s) per MPI task
Reading data file ...
  orthogonal box = (-16.796 -16.796 -16.796) to (16.796 16.796 16.796)
  2 by 2 by 2 MPI processor grid
  reading atoms ...
  32000 atoms
  reading velocities ...
  32000 velocities
  scanning bonds ...
  1 = max bonds/atom
  reading bonds ...
  31680 bonds
Finding 1-2 1-3 1-4 neighbors ...
  special bond factors lj:    0        1        1       
  special bond factors coul:  0        1        1       
     2 = max # of 1-2 neighbors
     2 = max # of special neighbors
  special bonds CPU = 0.002 seconds
  read_data CPU = 0.120 seconds
Replicating atoms ...
  orthogonal box = (-16.796 -16.796 -16.796) to (83.98 83.98 83.98)
  2 by 2 by 2 MPI processor grid
  864000 atoms
  855360 bonds
Finding 1-2 1-3 1-4 neighbors ...
  special bond factors lj:    0        1        1       
  special bond factors coul:  0        1        1       
     2 = max # of 1-2 neighbors
     2 = max # of special neighbors
  special bonds CPU = 0.025 seconds
  replicate CPU = 0.057 seconds
----------------------------------------------------------
Using INTEL Package without Coprocessor.
Compiler: Intel Classic C++ 20.21.5 / Intel(R) C++ g++ 9.3 mode
SIMD compiler directives: Enabled
Precision: mixed
----------------------------------------------------------
  generated 0 of 0 mixed pair_coeff terms from geometric mixing rule
Neighbor list info ...
  update every 1 steps, delay 1 steps, check yes
  max neighbors/atom: 2000, page size: 100000
  master list distance cutoff = 1.52
  ghost atom cutoff = 1.52
  binsize = 0.76, bins = 133 133 133
  1 neighbor lists, perpetual/occasional/extra = 1 0 0
  (1) pair lj/cut/intel, perpetual
      attributes: half, newton on, intel
      pair build: half/bin/newton/intel
      stencil: half/bin/3d
      bin: intel
Setting up Verlet run ...
  Unit style    : lj
  Current step  : 0
  Time step     : 0.012
WARNING: Communication cutoff 1.52 is shorter than a bond length based estimate of 1.855. This may lead to errors. (../comm.cpp:723)
Per MPI rank memory allocation (min/avg/max) = 952.6 | 953.2 | 953.9 Mbytes
Step Temp E_pair E_mol TotEng Press 
       0   0.97026852   0.44484092    20.494523    22.394765    4.6721839 
     100   0.97375854   0.44201485    20.501708    22.404359    4.6845897 
     200   0.97735387   0.44392365    20.504113    22.414066    4.6948539 
     300   0.98095584    0.4446593    20.505151    22.421242    4.7142974 
     400   0.98295725   0.44539243     20.50723    22.427057     4.726657 
     500   0.98645586   0.44649068    20.507407     22.43358    4.7446852 
     600   0.98672184   0.44892724    20.509904    22.438912    4.7579248 
     700   0.98996022   0.44907728    20.509411    22.443427    4.7543979 
     800   0.99023289   0.44898069    20.511301    22.445629    4.7636008 
     900   0.99324113   0.44931238    20.510922    22.450094     4.752655 
    1000   0.99417107   0.45038338    20.511536    22.453175    4.7659944 
    1100   0.99528296   0.45104327    20.512197    22.456163    4.7707613 
    1200   0.99612497   0.45040266    20.513381    22.457969    4.7606235 
    1300   0.99713593   0.45183825    20.514257    22.461797    4.7607472 
    1400   0.99759136    0.4531445    20.513481    22.463011    4.7802122 
    1500   0.99866477   0.45316701    20.513145    22.464308    4.8035631 
    1600   0.99902536   0.45312922    20.515357    22.467023    4.7817944 
    1700   0.99939801   0.45309591    20.514474    22.466666    4.7906723 
    1800    0.9999124   0.45293867     20.51428    22.467085     4.790454 
    1900   0.99935473   0.45360364    20.515418    22.468052    4.7938214 
    2000   0.99950053   0.45275107    20.516016    22.468016     4.789658 
    2100   0.99921901   0.45301059    20.515702    22.467539    4.8099702 
    2200   0.99955051   0.45228244    20.515767    22.467373    4.7929706 
    2300   0.99948984   0.45307314    20.515485    22.467791    4.7876363 
    2400   0.99938995   0.45334857    20.515409     22.46784    4.7932676 
    2500   0.99956049   0.45392284    20.515046    22.468308    4.7878879 
    2600   0.99997956   0.45378446    20.515706    22.469458    4.7940881 
    2700    1.0016939   0.45378078     20.51472     22.47104    4.8028599 
    2800    1.0012875   0.45342569    20.516218    22.471573    4.7904039 
    2900    1.0009422   0.45490293    20.515625    22.471939    4.7880299 
    3000    1.0012634   0.45378745    20.515161    22.470842    4.7921714 
    3100    1.0015897   0.45292456    20.515267    22.470574      4.79255 
    3200    1.0007355   0.45335771    20.516264    22.470723    4.7967815 
    3300    1.0006961    0.4536683    20.516123    22.470834    4.7853803 
    3400    1.0014097   0.45336656    20.514949    22.470428    4.7862915 
    3500    1.0012376    0.4536257     20.51521     22.47069    4.7912966 
    3600    1.0008969   0.45363143    20.516594     22.47157     4.793953 
    3700    1.0018006    0.4532534    20.516339    22.472292    4.7920753 
    3800    1.0005623   0.45602791    20.516464    22.473334    4.7826847 
    3900    1.0026838    0.4531865    20.515803    22.473013    4.7910028 
    4000    1.0022048    0.4544666    20.515879    22.473651    4.7972136 
    4100    1.0025662   0.45395548    20.516422    22.474225    4.7906134 
    4200    1.0013527   0.45382915    20.516587    22.472444    4.7924176 
    4300    1.0019352    0.4538758     20.51559    22.472367    4.7934327 
    4400    1.0015334   0.45311636    20.516257    22.471672     4.786795 
    4500    1.0020556   0.45413271    20.514276     22.47149    4.7909075 
    4600    1.0005618   0.45350022    20.517017    22.471359    4.7771052 
    4700    1.0017824    0.4535841    20.514833    22.471089    4.8007648 
    4800     1.001339   0.45359241    20.515311    22.470911    4.7832261 
    4900   0.99949808   0.45235193    20.516683     22.46828    4.7896386 
    5000   0.99937505   0.45295614    20.517018    22.469035    4.7809858 
    5100    1.0001339   0.45351934    20.514577    22.468295    4.7926441 
    5200   0.99907449   0.45328349    20.515571    22.467464    4.7835001 
    5300   0.99963079   0.45180273    20.516593     22.46784    4.7716228 
    5400   0.99951928   0.45277295     20.51643     22.46848     4.803207 
    5500    1.0007132   0.45413125    20.514875    22.470075    4.7838689 
    5600    1.0002731    0.4543472    20.516618    22.471373    4.7801828 
    5700    1.0015734   0.45387465    20.515033    22.471266    4.8107121 
    5800     1.000017   0.45473854    20.517086    22.471848    4.8182416 
    5900    1.0013265   0.45376975     20.51617    22.471928    4.8050722 
    6000    1.0019141   0.45380946    20.515808    22.472487    4.7837988 
    6100    1.0010774   0.45475513    20.515874    22.472244    4.7871537 
    6200    1.0009392   0.45364009    20.515875    22.470922    4.7959864 
    6300    1.0007217   0.45386948    20.516512    22.471462    4.7966498 
    6400    1.0003668   0.45435643    20.515772    22.470677    4.7980653 
    6500    1.0009761   0.45441261    20.515651    22.471526    4.8022468 
    6600    1.0008038    0.4545568     20.51618    22.471941    4.7905649 
    6700    1.0012063   0.45410138    20.516757    22.472666    4.8166499 
    6800    1.0009571   0.45530454     20.51605    22.472789     4.791256 
    6900    1.0023833   0.45377119    20.516159    22.473504    4.7884636 
    7000    1.0021524   0.45449958    20.515723    22.473449    4.8102953 
    7100    1.0013293   0.45495883    20.515869     22.47282    4.8126467 
    7200    1.0013462   0.45414664     20.51588    22.472045    4.7935687 
    7300   0.99996453   0.45473064    20.516692    22.471368    4.7951184 
    7400    1.0015561   0.45431557    20.516106    22.472754    4.7906538 
    7500    1.0016739   0.45419671    20.514733    22.471439    4.7952512 
    7600    1.0006624   0.45408229    20.515374    22.470448    4.8173291 
    7700    1.0012371   0.45329322     20.51521    22.470358    4.7882654 
    7800    1.0003143   0.45472114    20.516952    22.472143     4.808207 
    7900    1.0030464   0.45306049    20.514458    22.472086      4.78542 
    8000    1.0013612   0.45373599    20.515816    22.471592    4.7866696 
    8100   0.99995817   0.45399613    20.517041    22.470973    4.7930103 
    8200     1.001052   0.45346898    20.515749    22.470794    4.7809888 
    8300    1.0014889   0.45399538    20.516288    22.472515    4.7877346 
    8400    1.0016212   0.45422117    20.515885    22.472536    4.7938404 
    8500    1.0022269   0.45398713    20.515114     22.47244    4.7913189 
    8600    1.0012739   0.45367907    20.516008    22.471596    4.7800762 
    8700    1.0007505   0.45465119    20.516344    22.472119    4.7902564 
    8800    1.0005968   0.45600287    20.514987    22.471883    4.8040366 
    8900    1.0007841   0.45604826    20.515735    22.472958     4.817454 
    9000    1.0008887   0.45469831    20.516143    22.472172    4.8105528 
    9100    1.0010203   0.45416913    20.516249    22.471947    4.7855603 
    9200    1.0007577   0.45424934    20.516439    22.471823    4.7846661 
    9300    1.0014315   0.45431845    20.516308    22.472772      4.79848 
    9400    1.0002095   0.45440936    20.516622    22.471344    4.7984338 
    9500    1.0008543   0.45445247     20.51662    22.472353    4.7837567 
    9600    1.0023031   0.45471575    20.515009    22.473178    4.8047556 
    9700    1.0013404   0.45435754    20.516219    22.472585    4.7955913 
    9800    1.0010503   0.45417146    20.516839    22.472584    4.7743988 
    9900    1.0024758   0.45441876     20.51579     22.47392    4.8053922 
   10000    1.0015703   0.45383588    20.517116    22.473306     4.794019 
Loop time of 268.957 on 8 procs for 10000 steps with 864000 atoms

Performance: 38548.957 tau/day, 37.181 timesteps/s
99.3% CPU use with 8 MPI tasks x 1 OpenMP threads

MPI task timing breakdown:
Section |  min time  |  avg time  |  max time  |%varavg| %total
---------------------------------------------------------------
Pair    | 72.217     | 72.522     | 72.775     |   2.0 | 26.96
Bond    | 14.001     | 14.063     | 14.15      |   1.3 |  5.23
Neigh   | 66.246     | 66.313     | 66.37      |   0.5 | 24.66
Comm    | 50.443     | 50.918     | 51.331     |   4.4 | 18.93
Output  | 0.028673   | 0.030762   | 0.032244   |   0.6 |  0.01
Modify  | 55.634     | 56.114     | 56.749     |   5.1 | 20.86
Other   |            | 8.995      |            |       |  3.34

Nlocal:         108000 ave      108125 max      107885 min
Histogram: 1 2 0 0 0 2 1 1 0 1
Nghost:        20730.1 ave       20817 max       20660 min
Histogram: 1 3 0 0 0 2 0 0 0 2
Neighs:         632435 ave      633289 max      631392 min
Histogram: 2 0 0 1 0 0 1 2 1 1

Total # of neighbors = 5059482
Ave neighs/atom = 5.8558819
Ave special neighs/atom = 1.98
Neighbor list builds = 2736
Dangerous builds = 0
Total wall time: 0:04:29
Intel(R) VTune(TM) Profiler 2022.2.0 collection completed successfully. Use the "aps --report /home/ubuntu/lammps/bench/aps_result_20220703" command to generate textual and HTML reports for the profiling session.
