LAMMPS (7 Jan 2022)
  using 1 OpenMP thread(s) per MPI task
Reading data file ...
  orthogonal box = (-16.796 -16.796 -16.796) to (16.796 16.796 16.796)
  2 by 2 by 2 MPI processor grid
  reading atoms ...
  32000 atoms
  reading velocities ...
  32000 velocities
  scanning bonds ...
  1 = max bonds/atom
  reading bonds ...
  31680 bonds
Finding 1-2 1-3 1-4 neighbors ...
  special bond factors lj:    0        1        1       
  special bond factors coul:  0        1        1       
     2 = max # of 1-2 neighbors
     2 = max # of special neighbors
  special bonds CPU = 0.001 seconds
  read_data CPU = 0.117 seconds
----------------------------------------------------------
Using INTEL Package without Coprocessor.
Compiler: Intel Classic C++ 20.21.5 / Intel(R) C++ g++ 9.3 mode
SIMD compiler directives: Enabled
Precision: mixed
----------------------------------------------------------
  generated 0 of 0 mixed pair_coeff terms from geometric mixing rule
Neighbor list info ...
  update every 1 steps, delay 1 steps, check yes
  max neighbors/atom: 2000, page size: 100000
  master list distance cutoff = 1.52
  ghost atom cutoff = 1.52
  binsize = 0.76, bins = 45 45 45
  1 neighbor lists, perpetual/occasional/extra = 1 0 0
  (1) pair lj/cut/intel, perpetual
      attributes: half, newton on, intel
      pair build: half/bin/newton/intel
      stencil: half/bin/3d
      bin: intel
Setting up Verlet run ...
  Unit style    : lj
  Current step  : 0
  Time step     : 0.012
WARNING: Communication cutoff 1.52 is shorter than a bond length based estimate of 1.855. This may lead to errors. (../comm.cpp:723)
Per MPI rank memory allocation (min/avg/max) = 38.28 | 38.47 | 38.57 Mbytes
Step Temp E_pair E_mol TotEng Press 
       0   0.97029772   0.44484085    20.494523    22.394765    4.6721835 
     100   0.97432589   0.44082469    20.504378    22.406646    4.6543451 
     200   0.97541691   0.44807275    20.498143    22.409296    4.7576693 
     300   0.98217731   0.44265687    20.500512    22.416389    4.7049192 
     400   0.98267414   0.44893262    20.505209    22.428107    4.6352327 
     500   0.98623372   0.44814672    20.507066    22.434517     4.726086 
     600   0.98865597   0.44474511    20.513009    22.440692    4.6460341 
     700   0.98851927     0.454813    20.506965    22.444511    4.8492973 
     800   0.99396666   0.44615991    20.511769    22.448832    4.7530265 
     900   0.99067445   0.45771897    20.509226     22.45291    4.7105656 
    1000   0.99918159   0.44855653    20.508237     22.45552    4.6897205 
    1100    1.0008904   0.45457433    20.506724    22.462587    4.8036815 
    1200   0.99250968   0.45752676    20.517282    22.463527    4.8463087 
    1300   0.99883357   0.45335019    20.513717     22.46527    4.8047275 
    1400   0.99520474   0.45137194    20.519001    22.463134    4.7809268 
    1500   0.98898223   0.45508344    20.507506    22.446017    4.8042964 
    1600   0.99169377   0.44520451    20.516506    22.449205    4.6662055 
    1700   0.99320897   0.44757706    20.515945    22.453288    4.7666072 
    1800   0.99913601   0.45589708    20.509297    22.463851    4.8581992 
    1900   0.99955147   0.45579256    20.509116    22.464188    4.8207279 
    2000    1.0013971   0.45419997    20.506374    22.462623    4.7322509 
    2100    1.0009184    0.4479213    20.513051    22.462303     4.848588 
    2200   0.99323525   0.45572212    20.514722     22.46025    4.7888077 
    2300    1.0009258   0.45362534    20.510506    22.465473    4.7613583 
    2400     1.006316   0.45355575    20.514325    22.477307    4.8179712 
    2500    1.0051078    0.4492509    20.516121    22.472987    4.7793906 
    2600   0.99775083   0.45895064     20.52141     22.47694    4.7795281 
    2700    1.0043233   0.45754178    20.512355    22.476335    4.7989066 
    2800    1.0051503   0.45834851    20.510475    22.476502    4.7679003 
    2900   0.99800639   0.45614944    20.525759    22.478872    4.7623811 
    3000    1.0034417   0.45512026    20.515684     22.47592    4.8109894 
    3100    1.0007006   0.45219602    20.516641    22.469841    4.8308768 
    3200   0.99852029   0.45335222    20.519477    22.470563    4.7908923 
    3300    1.0045586   0.45149386     20.51053    22.468815    4.6672845 
    3400      1.00258   0.45371042    20.509971    22.467504     4.740167 
    3500   0.99647292   0.45131661    20.513756    22.459736    4.7118472 
    3600    1.0019131   0.44868779    20.510236    22.461746    4.8254593 
    3700    1.0044463   0.44677791    20.505602    22.459002    4.6817489 
    3800   0.99851748   0.44975511    20.514012    22.461496    4.8550112 
    3900   0.99619846   0.45173685    20.513847    22.459834    4.8475286 
    4000    0.9973486   0.44832022    20.509843    22.454139    4.7947331 
    4100   0.98728451   0.45467428    20.515556     22.45111    4.7665352 
    4200   0.98795386   0.45331855    20.514752    22.449955    4.7798374 
    4300   0.99628414   0.44641365    20.509062    22.449856     4.686731 
    4400   0.99538732   0.45659388    20.510694    22.460322    4.8531802 
    4500   0.99849982   0.44766765    20.513548    22.458918    4.7779792 
    4600   0.99482231    0.4514953    20.519738     22.46342    4.8595456 
    4700   0.99405278   0.44913579    20.518909    22.459077    4.6907149 
    4800   0.99731708   0.45158442    20.517883    22.465396    4.7969599 
    4900   0.99803409   0.44789821    20.516481    22.461384    4.7819291 
    5000   0.99878176   0.45189754    20.511566    22.461589    4.7946583 
    5100    0.9977733   0.45136362    20.512831    22.460808    4.8312584 
    5200   0.99916346   0.44786198    20.514033    22.460593    4.8231303 
    5300    1.0010153   0.45093703    20.512999    22.465412    4.8090954 
    5400   0.99374196   0.45035649    20.521489    22.462412    4.7327875 
    5500     0.993721   0.45167167     20.51972    22.461927    4.8252921 
    5600   0.99427676   0.45155714    20.514008    22.456934    4.8387475 
    5700   0.99934051   0.45581552    20.508548    22.463328      4.72191 
    5800   0.99642969   0.45613352    20.515844    22.466575    4.7883325 
    5900   0.99838101   0.45094099    20.516115    22.464581     4.771573 
    6000   0.99859728   0.45014098    20.508847    22.456837     4.783212 
    6100   0.99652018   0.44897993    20.510986      22.4547    4.8212314 
    6200   0.99121155    0.4570003    20.514704    22.458476    4.7530233 
    6300   0.99646702   0.45550609    20.506903    22.457062    4.8261758 
    6400   0.99616397   0.45511297    20.515748     22.46506    4.7677386 
    6500    1.0001527   0.45327144    20.513396     22.46685      4.74718 
    6600    1.0042973   0.45164097    20.513596    22.471636    4.8162648 
    6700   0.99876752   0.45856694    20.520088     22.47676    4.7996188 
    6800     1.003119   0.45726063    20.518027    22.479919    4.8087775 
    6900    1.0021903   0.45521851    20.517485    22.475942    4.7986323 
    7000     1.006417   0.45419759    20.515636    22.479412     4.720403 
    7100    1.0042887   0.45130966    20.519109    22.476805    4.6967029 
    7200    1.0049451   0.45765377    20.518782    22.483807    4.7981995 
    7300    1.0024009   0.45815916    20.520355    22.482069     4.841829 
    7400    1.0152596   0.44502695    20.519215    22.487084    4.7117332 
    7500   0.99872994   0.45933285    20.521166    22.478547    4.7874825 
    7600    1.0061111   0.45562933    20.519169    22.483918    4.8077375 
    7700    1.0064494   0.45303155    20.525147    22.487806    4.7561808 
    7800    1.0035136   0.45652905    20.521341    22.483094     4.751052 
    7900    1.0084049   0.45804615    20.517268    22.487875    4.8381978 
    8000    1.0002346   0.45686418    20.517404    22.474573    4.8072651 
    8100     1.003717   0.45341491    20.516571    22.475515    4.7382801 
    8200     1.003112   0.45169509    20.517541    22.473857    4.7076848 
    8300    1.0031382   0.45330639    20.514615    22.472582    4.6999765 
    8400    1.0025283   0.45417178    20.514385    22.472302    4.8483312 
    8500    1.0097882   0.45217841     20.50687    22.473683    4.8643007 
    8600    1.0045425    0.4578583    20.513109    22.477734    4.8498287 
    8700    1.0077941    0.4540792    20.514786    22.480509    4.7780385 
    8800    1.0061954   0.45248833    20.517721    22.479456    4.7764115 
    8900    1.0101495   0.45920825    20.504845     22.47923    4.7760218 
    9000    1.0062974   0.46044158    20.517831    22.487671    4.8024877 
    9100   0.99927191   0.45029563    20.527265    22.476422    4.8741959 
    9200     1.001924   0.45920534    20.517521    22.479565    4.9018444 
    9300    1.0066343   0.45265008    20.515927    22.478481    4.7930716 
    9400    1.0003901   0.45598776    20.518483    22.475009    4.9099349 
    9500    1.0009265   0.45479381     20.51946    22.475597    4.7206014 
    9600    1.0038543   0.45614802    20.517886    22.479768    4.7638779 
    9700   0.99909178   0.45475112    20.516245    22.469587    4.7791096 
    9800    0.9986223    0.4531217    20.511351     22.46236    4.7796298 
    9900    1.0015197   0.45299775    20.508203    22.463433      4.69258 
   10000    1.0007094   0.45140427    20.507557    22.459978    4.7890365 
Loop time of 8.90355 on 8 procs for 10000 steps with 32000 atoms

Performance: 1164479.218 tau/day, 1123.147 timesteps/s
99.1% CPU use with 8 MPI tasks x 1 OpenMP threads

MPI task timing breakdown:
Section |  min time  |  avg time  |  max time  |%varavg| %total
---------------------------------------------------------------
Pair    | 2.4747     | 2.5746     | 2.6421     |   2.8 | 28.92
Bond    | 0.41718    | 0.43597    | 0.44839    |   1.2 |  4.90
Neigh   | 2.254      | 2.2572     | 2.2603     |   0.1 | 25.35
Comm    | 1.2673     | 1.3438     | 1.4641     |   4.5 | 15.09
Output  | 0.0027672  | 0.0029734  | 0.0036     |   0.5 |  0.03
Modify  | 1.9326     | 2.0083     | 2.0533     |   2.3 | 22.56
Other   |            | 0.2808     |            |       |  3.15

Nlocal:           4000 ave        4013 max        3981 min
Histogram: 1 0 0 2 1 0 0 0 2 2
Nghost:        2572.12 ave        2593 max        2542 min
Histogram: 1 2 0 0 0 0 0 1 2 2
Neighs:        23457.6 ave       23664 max       23168 min
Histogram: 1 0 1 1 0 1 0 2 0 2

Total # of neighbors = 187661
Ave neighs/atom = 5.8644063
Ave special neighs/atom = 1.98
Neighbor list builds = 2508
Dangerous builds = 0
Total wall time: 0:00:09
Intel(R) VTune(TM) Profiler 2022.2.0 collection completed successfully. Use the "aps --report /home/ubuntu/lammps/bench/aps_result_20220703" command to generate textual and HTML reports for the profiling session.
