LAMMPS (7 Jan 2022)
  using 1 OpenMP thread(s) per MPI task
Reading data file ...
  orthogonal box = (-16.796 -16.796 -16.796) to (16.796 16.796 16.796)
  4 by 4 by 4 MPI processor grid
  reading atoms ...
  32000 atoms
  reading velocities ...
  32000 velocities
  scanning bonds ...
  1 = max bonds/atom
  reading bonds ...
  31680 bonds
Finding 1-2 1-3 1-4 neighbors ...
  special bond factors lj:    0        1        1       
  special bond factors coul:  0        1        1       
     2 = max # of 1-2 neighbors
     2 = max # of special neighbors
  special bonds CPU = 0.018 seconds
  read_data CPU = 0.153 seconds
Replicating atoms ...
  orthogonal box = (-16.796 -16.796 -16.796) to (83.98 83.98 83.98)
  4 by 4 by 4 MPI processor grid
  864000 atoms
  855360 bonds
Finding 1-2 1-3 1-4 neighbors ...
  special bond factors lj:    0        1        1       
  special bond factors coul:  0        1        1       
     2 = max # of 1-2 neighbors
     2 = max # of special neighbors
  special bonds CPU = 0.013 seconds
  replicate CPU = 0.045 seconds
----------------------------------------------------------
Using INTEL Package without Coprocessor.
Compiler: Intel Classic C++ 20.21.5 / Intel(R) C++ g++ 9.3 mode
SIMD compiler directives: Enabled
Precision: mixed
----------------------------------------------------------
  generated 0 of 0 mixed pair_coeff terms from geometric mixing rule
Neighbor list info ...
  update every 1 steps, delay 1 steps, check yes
  max neighbors/atom: 2000, page size: 100000
  master list distance cutoff = 1.52
  ghost atom cutoff = 1.52
  binsize = 0.76, bins = 133 133 133
  1 neighbor lists, perpetual/occasional/extra = 1 0 0
  (1) pair lj/cut/intel, perpetual
      attributes: half, newton on, intel
      pair build: half/bin/newton/intel
      stencil: half/bin/3d
      bin: intel
Setting up Verlet run ...
  Unit style    : lj
  Current step  : 0
  Time step     : 0.012
WARNING: Communication cutoff 1.52 is shorter than a bond length based estimate of 1.855. This may lead to errors. (../comm.cpp:723)
Per MPI rank memory allocation (min/avg/max) = 122.8 | 123.1 | 123.6 Mbytes
Step Temp E_pair E_mol TotEng Press 
       0   0.97026852   0.44484092    20.494523    22.394765    4.6721839 
     100   0.97413127   0.44015029    20.501579    22.402925    4.6847304 
Loop time of 0.840242 on 64 procs for 100 steps with 864000 atoms

Performance: 123393.077 tau/day, 119.013 timesteps/s
92.9% CPU use with 64 MPI tasks x 1 OpenMP threads

MPI task timing breakdown:
Section |  min time  |  avg time  |  max time  |%varavg| %total
---------------------------------------------------------------
Pair    | 0.093583   | 0.10821    | 0.17411    |   4.2 | 12.88
Bond    | 0.015617   | 0.018164   | 0.020443   |   1.5 |  2.16
Neigh   | 0.1893     | 0.19035    | 0.19139    |   0.1 | 22.65
Comm    | 0.13678    | 0.22017    | 0.35361    |  15.7 | 26.20
Output  | 0.00011999 | 0.00020933 | 0.00032486 |   0.0 |  0.02
Modify  | 0.069912   | 0.081166   | 0.11867    |   3.4 |  9.66
Other   |            | 0.222      |            |       | 26.42

Nlocal:          13500 ave       13555 max       13456 min
Histogram: 4 3 9 11 14 6 7 7 2 1
Nghost:         5505.3 ave        5556 max        5438 min
Histogram: 1 2 6 5 5 12 18 5 5 5
Neighs:        79078.8 ave       79539 max       78495 min
Histogram: 1 4 7 7 6 8 15 5 5 6

Total # of neighbors = 5061046
Ave neighs/atom = 5.8576921
Ave special neighs/atom = 1.98
Neighbor list builds = 25
Dangerous builds = 0
Total wall time: 0:00:01
Intel(R) VTune(TM) Profiler 2022.2.0 collection completed successfully. Use the "aps --report /home/ubuntu/lammps/bench/aps_result_20220526" command to generate textual and HTML reports for the profiling session.
