LAMMPS (7 Jan 2022)
  using 1 OpenMP thread(s) per MPI task
Reading data file ...
  orthogonal box = (-16.796 -16.796 -16.796) to (16.796 16.796 16.796)
  1 by 2 by 2 MPI processor grid
  reading atoms ...
  32000 atoms
  reading velocities ...
  32000 velocities
  scanning bonds ...
  1 = max bonds/atom
  reading bonds ...
  31680 bonds
Finding 1-2 1-3 1-4 neighbors ...
  special bond factors lj:    0        1        1       
  special bond factors coul:  0        1        1       
     2 = max # of 1-2 neighbors
     2 = max # of special neighbors
  special bonds CPU = 0.002 seconds
  read_data CPU = 0.121 seconds
Replicating atoms ...
  orthogonal box = (-16.796 -16.796 -16.796) to (83.98 83.98 83.98)
  2 by 1 by 2 MPI processor grid
  864000 atoms
  855360 bonds
Finding 1-2 1-3 1-4 neighbors ...
  special bond factors lj:    0        1        1       
  special bond factors coul:  0        1        1       
     2 = max # of 1-2 neighbors
     2 = max # of special neighbors
  special bonds CPU = 0.049 seconds
  replicate CPU = 0.090 seconds
----------------------------------------------------------
Using INTEL Package without Coprocessor.
Compiler: Intel Classic C++ 20.21.5 / Intel(R) C++ g++ 9.3 mode
SIMD compiler directives: Enabled
Precision: mixed
----------------------------------------------------------
  generated 0 of 0 mixed pair_coeff terms from geometric mixing rule
Neighbor list info ...
  update every 1 steps, delay 1 steps, check yes
  max neighbors/atom: 2000, page size: 100000
  master list distance cutoff = 1.52
  ghost atom cutoff = 1.52
  binsize = 0.76, bins = 133 133 133
  1 neighbor lists, perpetual/occasional/extra = 1 0 0
  (1) pair lj/cut/intel, perpetual
      attributes: half, newton on, intel
      pair build: half/bin/newton/intel
      stencil: half/bin/3d
      bin: intel
Setting up Verlet run ...
  Unit style    : lj
  Current step  : 0
  Time step     : 0.012
WARNING: Communication cutoff 1.52 is shorter than a bond length based estimate of 1.855. This may lead to errors. (../comm.cpp:723)
Per MPI rank memory allocation (min/avg/max) = 1904 | 1904 | 1905 Mbytes
Step Temp E_pair E_mol TotEng Press 
       0   0.97026852   0.44484092    20.494523    22.394765    4.6721839 
     100   0.97324966   0.44114411    20.501778    22.402795    4.6961146 
     200   0.97740172   0.44255989    20.503959     22.41262    4.7201534 
     300    0.9796852   0.44476039     20.50543    22.419716    4.7236525 
     400    0.9828666   0.44602123    20.506813    22.427132    4.7170587 
     500   0.98572969   0.44743415     20.50755    22.433577    4.7469296 
     600   0.98769773   0.44791353    20.508803    22.438261    4.7363828 
     700   0.98979684   0.44827908    20.509832    22.442804    4.7555663 
     800   0.99073129    0.4481243    20.512215    22.446434     4.739795 
     900   0.99195195   0.44967374     20.51275     22.45035    4.7689912 
    1000    0.9929374   0.45171543    20.512352    22.453471    4.7685915 
    1100   0.99473136   0.45203895    20.512683    22.456817    4.7829878 
    1200   0.99577588   0.45110057    20.513416    22.458178    4.7563521 
    1300   0.99684924   0.45046285    20.513702    22.459437    4.7742671 
    1400   0.99708462   0.45222575    20.513272    22.461123    4.7751602 
    1500   0.99820239   0.45162606    20.514128    22.463056    4.7843174 
    1600    0.9986462   0.45170158    20.514821     22.46449    4.7778599 
    1700   0.99736558   0.45267068     20.51536    22.464077    4.7818341 
    1800   0.99826332   0.45304637    20.514564    22.465004    4.7965857 
    1900   0.99995364   0.45210319    20.514463    22.466495    4.7902538 
    2000    0.9990026   0.45374879    20.514244    22.466495    4.8018328 
    2100   0.99971409   0.45387992    20.513404    22.466853    4.7770673 
    2200   0.99924426   0.45260757     20.51509    22.466562    4.7832048 
    2300    0.9981276   0.45432196    20.514933    22.466445    4.7995752 
    2400   0.99788268   0.45423821    20.514976    22.466037    4.7865248 
    2500   0.99969714   0.45253119    20.515839    22.467914    4.7858994 
    2600    1.0006947   0.45146868    20.515664    22.468173    4.7846724 
    2700    1.0001271   0.45377426    20.514801    22.468765    4.7860054 
    2800    1.0009106   0.45259433    20.515915    22.469873    4.7802938 
    2900    1.0013542   0.45221248    20.515927    22.470169    4.7864899 
    3000    1.0010594   0.45354493    20.515447    22.470579    4.8059935 
    3100    1.0004071   0.45425278    20.515361    22.470223    4.7958513 
    3200    1.0017713   0.45303795    20.514402    22.470095    4.7743742 
    3300    1.0027471   0.45293936    20.514428    22.471486    4.7771895 
    3400   0.99920568   0.45376787    20.516858    22.469432    4.7990878 
    3500   0.99912392   0.45364886    20.516392    22.468725    4.7980181 
    3600    1.0003086   0.45269961    20.515236    22.468397    4.7693333 
    3700    1.0010003   0.45222023    20.515305    22.469024    4.7637942 
    3800   0.99986079   0.45344387    20.515081    22.468314    4.8038029 
    3900    1.0004698   0.45365315    20.515119    22.469475    4.7965237 
    4000   0.99984353   0.45213043    20.516149    22.468043        4.783 
    4100    1.0007188   0.45445273    20.514898    22.470427    4.8020323 
    4200     1.000785   0.45384785    20.514835    22.469859    4.7963873 
    4300    1.0005458   0.45385724    20.515219    22.469893    4.8108646 
    4400    1.0009064   0.45348177     20.51593     22.47077     4.794846 
    4500    1.0024098   0.45314336    20.515772    22.472528     4.786274 
    4600    1.0011371   0.45536364     20.51595    22.473017    4.7877731 
    4700    1.0027599    0.4537822    20.515397    22.473317    4.7926006 
    4800    1.0028262   0.45446569    20.515785    22.474488    4.7926067 
    4900    1.0014043   0.45599332    20.516012     22.47411    4.7965234 
    5000    1.0019692   0.45560411    20.515585    22.474141    4.7981741 
    5100    1.0019974   0.45390811    20.517507     22.47441    4.8028857 
    5200    1.0012026   0.45496917    20.516766    22.473537    4.8043398 
    5300    1.0019395   0.45315873    20.516587    22.472653    4.7845636 
    5400    1.0021785   0.45492567    20.515208      22.4734    4.8079258 
    5500    1.0021753   0.45294923    20.515641    22.471851    4.7976774 
    5600    1.0014132   0.45273689    20.516088    22.470943    4.7948181 
    5700    1.0018124   0.45348659    20.516466    22.472669    4.7974549 
    5800    1.0016888   0.45449062     20.51711    22.474132    4.8069678 
    5900     1.003421   0.45370754    20.514875    22.473712    4.7954827 
    6000     1.002068   0.45392244    20.516639    22.473662    4.8017609 
    6100    1.0020147   0.45510689    20.516761    22.474888      4.81058 
    6200    1.0019958   0.45513605     20.51702    22.475148    4.8059386 
    6300    1.0018553    0.4541305    20.517328    22.474239    4.8057848 
    6400    1.0020502    0.4546093    20.516323    22.474006    4.8045652 
    6500    1.0010262   0.45337481    20.518238     22.47315    4.7840906 
    6600    1.0020891   0.45303547    20.516168    22.472336     4.777218 
    6700    1.0020412   0.45479577    20.515338    22.473194     4.802163 
    6800    1.0012252   0.45367624    20.517058    22.472571    4.7937104 
    6900    1.0022886   0.45183671    20.516747    22.472015    4.7802968 
    7000    1.0009117   0.45340223    20.516697    22.471465    4.7958529 
    7100    1.0004581   0.45392996    20.517238    22.471853    4.7921713 
    7200    1.0009907     0.454414    20.515962     22.47186    4.8012949 
    7300    1.0008965    0.4540322    20.514657    22.470032    4.7769562 
    7400   0.99962057   0.45414391    20.515435    22.469008    4.7795682 
    7500   0.99916624   0.45386734    20.514816    22.467431    4.7884799 
    7600    1.0004345   0.45278359    20.514908    22.468342    4.7773108 
    7700   0.99957869   0.45446272    20.514819    22.468648    4.8165832 
    7800    1.0009341   0.45292542      20.5149    22.469225    4.8015893 
    7900   0.99997354   0.45420419    20.516039    22.470202    4.7838286 
    8000     1.000827   0.45362255    20.515719     22.47058    4.8016008 
    8100    1.0007386   0.45399244    20.517019    22.472118    4.7821128 
    8200    1.0015076   0.45410214    20.516224    22.472586    4.7801989 
    8300    1.0025685   0.45341351    20.516228    22.473492    4.8035264 
    8400    1.0006874    0.4544995    20.516746    22.472275     4.808842 
    8500    1.0009396   0.45466361    20.516006    22.472077     4.770273 
    8600    1.0013767   0.45364033    20.516656     22.47236    4.7794555 
    8700    1.0016308   0.45283048    20.516622    22.471897     4.789144 
    8800    1.0019283   0.45503706    20.515354    22.473282    4.7885834 
    8900    1.0011206   0.45486473    20.516481    22.473025    4.7955059 
    9000    1.0020587   0.45418439    20.515547    22.472818    4.8140671 
    9100    1.0008323   0.45439916    20.517159    22.472805    4.7891573 
    9200    1.0015141   0.45395189    20.516604    22.472825    4.7999124 
    9300    1.0010646   0.45470873    20.516551    22.472855    4.7973559 
    9400    1.0006506   0.45447723    20.516718     22.47217    4.8071956 
    9500    1.0009578   0.45349484    20.517276    22.472205    4.7906322 
    9600    1.0010737   0.45366709    20.517151    22.472427     4.794381 
    9700    1.0009407   0.45253287    20.517482    22.471424    4.7877994 
    9800    1.0011553   0.45333556     20.51555    22.470617    4.7839629 
    9900    1.0003151   0.45388831    20.517592    22.471951    4.7801914 
   10000     1.001486   0.45451275    20.514815    22.471555    4.7927772 
Loop time of 552.904 on 4 procs for 10000 steps with 864000 atoms

Performance: 18751.892 tau/day, 18.086 timesteps/s
99.5% CPU use with 4 MPI tasks x 1 OpenMP threads

MPI task timing breakdown:
Section |  min time  |  avg time  |  max time  |%varavg| %total
---------------------------------------------------------------
Pair    | 142.73     | 143.11     | 143.51     |   2.5 | 25.88
Bond    | 27.212     | 27.252     | 27.318     |   0.8 |  4.93
Neigh   | 135.7      | 136.15     | 136.54     |   3.3 | 24.63
Comm    | 117.89     | 118.28     | 118.49     |   2.2 | 21.39
Output  | 0.053536   | 0.056412   | 0.058714   |   0.8 |  0.01
Modify  | 110.85     | 111.68     | 112.36     |   6.1 | 20.20
Other   |            | 16.37      |            |       |  2.96

Nlocal:         216000 ave      216131 max      215808 min
Histogram: 1 0 0 0 0 0 1 1 0 1
Nghost:        34151.2 ave       34308 max       34065 min
Histogram: 1 1 1 0 0 0 0 0 0 1
Neighs:    1.26486e+06 ave 1.26592e+06 max 1.26295e+06 min
Histogram: 1 0 0 0 0 0 0 1 1 1

Total # of neighbors = 5059422
Ave neighs/atom = 5.8558125
Ave special neighs/atom = 1.98
Neighbor list builds = 2729
Dangerous builds = 0
Total wall time: 0:09:13
Intel(R) VTune(TM) Profiler 2022.2.0 collection completed successfully. Use the "aps --report /home/ubuntu/lammps/bench/aps_result_20220703" command to generate textual and HTML reports for the profiling session.
