LAMMPS (7 Jan 2022)
  using 1 OpenMP thread(s) per MPI task
Reading data file ...
  orthogonal box = (-16.796 -16.796 -16.796) to (16.796 16.796 16.796)
  2 by 2 by 4 MPI processor grid
  reading atoms ...
  32000 atoms
  reading velocities ...
  32000 velocities
  scanning bonds ...
  1 = max bonds/atom
  reading bonds ...
  31680 bonds
Finding 1-2 1-3 1-4 neighbors ...
  special bond factors lj:    0        1        1       
  special bond factors coul:  0        1        1       
     2 = max # of 1-2 neighbors
     2 = max # of special neighbors
  special bonds CPU = 0.003 seconds
  read_data CPU = 0.121 seconds
Replicating atoms ...
  orthogonal box = (-16.796 -16.796 -16.796) to (83.98 83.98 83.98)
  2 by 2 by 4 MPI processor grid
  864000 atoms
  855360 bonds
Finding 1-2 1-3 1-4 neighbors ...
  special bond factors lj:    0        1        1       
  special bond factors coul:  0        1        1       
     2 = max # of 1-2 neighbors
     2 = max # of special neighbors
  special bonds CPU = 0.017 seconds
  replicate CPU = 0.044 seconds
----------------------------------------------------------
Using INTEL Package without Coprocessor.
Compiler: Intel Classic C++ 20.21.5 / Intel(R) C++ g++ 9.3 mode
SIMD compiler directives: Enabled
Precision: mixed
----------------------------------------------------------
  generated 0 of 0 mixed pair_coeff terms from geometric mixing rule
Neighbor list info ...
  update every 1 steps, delay 1 steps, check yes
  max neighbors/atom: 2000, page size: 100000
  master list distance cutoff = 1.52
  ghost atom cutoff = 1.52
  binsize = 0.76, bins = 133 133 133
  1 neighbor lists, perpetual/occasional/extra = 1 0 0
  (1) pair lj/cut/intel, perpetual
      attributes: half, newton on, intel
      pair build: half/bin/newton/intel
      stencil: half/bin/3d
      bin: intel
Setting up Verlet run ...
  Unit style    : lj
  Current step  : 0
  Time step     : 0.012
WARNING: Communication cutoff 1.52 is shorter than a bond length based estimate of 1.855. This may lead to errors. (../comm.cpp:723)
Per MPI rank memory allocation (min/avg/max) = 480.1 | 480.8 | 481.5 Mbytes
Step Temp E_pair E_mol TotEng Press 
       0   0.97026852   0.44484092    20.494523    22.394765    4.6721839 
     100   0.97369889   0.44090968    20.502103     22.40356    4.6736947 
     200   0.97642467   0.44522113    20.502462    22.412319    4.7177647 
     300    0.9817511   0.44412508    20.503502    22.420252    4.7056004 
     400   0.98352825    0.4458645    20.506142    22.427297    4.7230018 
     500   0.98600583   0.44659052    20.508312    22.433909    4.7287739 
     600   0.98790577   0.44916888    20.508672    22.439698    4.7430807 
     700   0.99072548   0.44739141    20.510782     22.44426    4.7492498 
     800   0.99032183   0.44931694     20.51214    22.446938    4.7522138 
     900   0.99256712   0.44965359    20.511054    22.449556    4.7605284 
    1000   0.99293824    0.4500944    20.512272    22.451772    4.7785753 
    1100   0.99431673   0.45097443    20.512701    22.455149    4.7861436 
    1200   0.99489425   0.45250384    20.512128    22.456971    4.7858904 
    1300   0.99600966   0.45183578    20.513362    22.459211     4.781046 
    1400   0.99574805   0.45104889    20.514785    22.459454     4.798307 
    1500   0.99728741   0.45153779    20.513332    22.460799    4.7929403 
    1600   0.99758392   0.45272577    20.513309    22.462409    4.7863774 
    1700   0.99814283   0.45211288    20.513243    22.462569    4.7823531 
    1800   0.99800518   0.45212555    20.514277    22.463408    4.7924566 
    1900   0.99890195   0.45236176    20.515723    22.466436    4.7788099 
    2000     0.999292   0.45474315     20.51526    22.468939    4.7909255 
    2100    1.0002341    0.4535643    20.515355    22.469268    4.7843603 
    2200    1.0003542   0.45215719    20.516355    22.469042    4.7761377 
    2300   0.99975352   0.45407237     20.51517    22.468871    4.7957896 
    2400   0.99903294   0.45401837    20.515513    22.468079    4.7914471 
    2500    1.0008953   0.45383214    20.513937     22.46911    4.7953375 
    2600    1.0004726   0.45351599    20.515329    22.469552    4.7922053 
    2700    1.0000452   0.45455349    20.515042    22.469661    4.7972501 
    2800    1.0005778   0.45508712    20.514487    22.470439    4.7826336 
    2900    1.0017099   0.45161474     20.51564    22.469817    4.7689647 
    3000    1.0007975   0.45190522    20.516193    22.469293    4.7716575 
    3100    1.0003031   0.45322095    20.516031    22.469705    4.7839054 
    3200    1.0009647   0.45396862    20.515076     22.47049    4.7951637 
    3300   0.99979565    0.4539047     20.51541    22.469007    4.7793567 
    3400    1.0003672   0.45351212    20.514555    22.468616    4.8028715 
    3500    1.0001773   0.45359509    20.514192    22.468051    4.7812927 
    3600   0.99941361   0.45358649    20.516103    22.468808     4.781798 
    3700    1.0006801    0.4531046    20.515706    22.469829     4.800384 
    3800    1.0009847   0.45416181    20.513974    22.469611    4.8125847 
    3900    1.0001571   0.45436711     20.51571    22.470311    4.7878404 
    4000     1.001426   0.45460526    20.514602    22.471345    4.7960474 
    4100    1.0007661   0.45417475    20.515853    22.471175    4.7914032 
    4200    1.0013094   0.45432453    20.515738    22.472025    4.7984562 
    4300    1.0005671   0.45393601    20.516367    22.471152    4.7934278 
    4400    1.0016555   0.45382484    20.515725    22.472032    4.8105147 
    4500    1.0015455   0.45340093     20.51601    22.471727    4.7938603 
    4600    1.0019028   0.45443843    20.515289     22.47258    4.7937815 
    4700    1.0010559   0.45494075    20.515781    22.472304    4.7914927 
    4800    1.0008594   0.45522444    20.516344    22.472856    4.7930997 
    4900    1.0008665   0.45382146    20.516778    22.471898    4.7977018 
    5000    1.0020748   0.45447192     20.51519    22.472773    4.8050395 
    5100    1.0014878   0.45316417    20.515652    22.471047    4.7879314 
    5200    1.0014587   0.45389874     20.51653    22.472615    4.7988453 
    5300    1.0020325   0.45494557    20.515432    22.473425    4.7943223 
    5400    1.0015332    0.4556742    20.516493    22.474465     4.811053 
    5500    1.0023046   0.45369569    20.517124    22.474274    4.7951676 
    5600    1.0024668   0.45420567    20.516804    22.474708    4.7962896 
    5700     1.002965   0.45371898    20.517136    22.475301    4.7998101 
    5800    1.0024634   0.45514142    20.517094    22.475929    4.8031015 
    5900    1.0036126   0.45380571    20.516418     22.47564    4.7687755 
    6000    1.0025832       0.4552    20.516417    22.475491    4.8116926 
    6100    1.0022196   0.45487889    20.515749    22.473956    4.8009885 
    6200    1.0018712   0.45414617    20.515668    22.472619    4.7997163 
    6300    1.0015239   0.45471843    20.517247    22.474249    4.7729395 
    6400    1.0017654   0.45420045    20.517001    22.473848    4.8128439 
    6500    1.0018407   0.45426893    20.516156    22.473184    4.7862404 
    6600    1.0018025    0.4534759    20.517009    22.473187    4.7942616 
    6700    1.0011197   0.45377205      20.5178    22.473249    4.7968217 
    6800    1.0013046   0.45509554    20.516881    22.473932     4.800743 
    6900    1.0017265   0.45325007    20.515681    22.471519    4.7796539 
    7000    1.0003752   0.45325397    20.516365     22.47018    4.7878465 
    7100    1.0013437    0.4540626    20.514981    22.471057    4.7897528 
    7200    1.0012164   0.45398009    20.515865    22.471668    4.8156669 
    7300    1.0020569    0.4538505    20.515501    22.472435    4.7850444 
    7400    1.0008312   0.45410902    20.515709    22.471063    4.8053174 
    7500    1.0009193   0.45403634    20.515199    22.470613    4.7998789 
    7600    1.0001768   0.45443934    20.516342    22.471045     4.798316 
    7700    1.0007932   0.45417889    20.515804    22.471171    4.7927476 
    7800    1.0003036   0.45477703    20.515604    22.470835    4.8109141 
    7900     1.000929   0.45529774    20.515004    22.471694    4.7833378 
    8000      1.00227    0.4535347    20.516031    22.472969    4.7873945 
    8100    1.0017853   0.45378799    20.515596     22.47206    4.8102474 
    8200    1.0018963   0.45438777    20.515545    22.472776    4.7852641 
    8300    1.0016345   0.45518521    20.515409    22.473044    4.7971228 
    8400    1.0010544   0.45393188     20.51591    22.471421    4.7891111 
    8500    1.0015545   0.45265443    20.517581    22.472566    4.7863835 
    8600   0.99957932   0.45458882    20.516861    22.470817    4.7927591 
    8700    1.0017209   0.45368759    20.516234    22.472501    4.7789519 
    8800    1.0013933   0.45465484    20.516258    22.473001    4.8135944 
    8900    1.0027979   0.45374739    20.515049    22.472991    4.8069319 
    9000    1.0022089   0.45365709    20.515778    22.472747    4.8013893 
    9100    1.0017445   0.45474867      20.5156    22.472964    4.7780594 
    9200    1.0013772   0.45502007    20.515901    22.472985    4.7986559 
    9300     1.000969   0.45455848    20.515607    22.471617    4.8135913 
    9400    1.0009593    0.4542994     20.51625    22.471986    4.7938656 
    9500    1.0006889    0.4546927     20.51706    22.472785     4.814153 
    9600    1.0010841   0.45415194     20.51594    22.471717    4.8192491 
    9700    1.0019079   0.45298318    20.516025    22.471868    4.8093324 
    9800    1.0020261   0.45425841    20.515442    22.472737    4.7850336 
    9900    1.0006953   0.45376534    20.517567    22.472373    4.7857001 
   10000    1.0013067   0.45365382    20.515642    22.471254    4.7995628 
Loop time of 139.873 on 16 procs for 10000 steps with 864000 atoms

Performance: 74124.147 tau/day, 71.493 timesteps/s
99.2% CPU use with 16 MPI tasks x 1 OpenMP threads

MPI task timing breakdown:
Section |  min time  |  avg time  |  max time  |%varavg| %total
---------------------------------------------------------------
Pair    | 37.124     | 37.295     | 37.751     |   2.4 | 26.66
Bond    | 6.8918     | 6.9631     | 7.0162     |   1.2 |  4.98
Neigh   | 33.745     | 33.866     | 33.973     |   1.3 | 24.21
Comm    | 26.321     | 26.942     | 27.283     |   4.3 | 19.26
Output  | 0.015653   | 0.0283     | 0.031606   |   2.1 |  0.02
Modify  | 28.412     | 28.821     | 30.166     |   7.5 | 20.61
Other   |            | 5.958      |            |       |  4.26

Nlocal:          54000 ave       54115 max       53898 min
Histogram: 1 1 2 4 1 2 1 2 1 1
Nghost:        14026.8 ave       14096 max       13961 min
Histogram: 3 1 1 2 1 1 2 1 3 1
Neighs:         316171 ave      317638 max      315128 min
Histogram: 2 3 2 2 0 2 3 1 0 1

Total # of neighbors = 5058729
Ave neighs/atom = 5.8550104
Ave special neighs/atom = 1.98
Neighbor list builds = 2736
Dangerous builds = 0
Total wall time: 0:02:20
Intel(R) VTune(TM) Profiler 2022.2.0 collection completed successfully. Use the "aps --report /home/ubuntu/lammps/bench/aps_result_20220703" command to generate textual and HTML reports for the profiling session.
