LAMMPS (7 Jan 2022)
  using 1 OpenMP thread(s) per MPI task
Reading data file ...
  orthogonal box = (0 0 0) to (40 20 37.2886)
  2 by 2 by 2 MPI processor grid
  reading atoms ...
  32000 atoms
  reading velocities ...
  32000 velocities
  read_data CPU = 0.113 seconds
Replicating atoms ...
  orthogonal box = (0 0 0) to (80 40 37.292229)
  4 by 2 by 1 MPI processor grid
  128000 atoms
  replicate CPU = 0.014 seconds
3648 atoms in group bottom
124352 atoms in group active
  generated 0 of 1 mixed pair_coeff terms from geometric mixing rule
Neighbor list info ...
  update every 1 steps, delay 0 steps, check yes
  max neighbors/atom: 2000, page size: 100000
  master list distance cutoff = 1.1
  ghost atom cutoff = 1.1
  binsize = 0.55, bins = 146 73 68
  1 neighbor lists, perpetual/occasional/extra = 1 0 0
  (1) pair gran/hooke/history, perpetual
      attributes: half, newton off, size, history
      pair build: half/size/bin/newtoff
      stencil: full/bin/3d
      bin: standard
Setting up Verlet run ...
  Unit style    : lj
  Current step  : 0
  Time step     : 0.0001
Per MPI rank memory allocation (min/avg/max) = 15.36 | 15.36 | 15.36 Mbytes
Step Atoms KinEng c_1 Volume 
       0   128000    3136556.5    6404.5051    119335.13 
     100   128000    3137168.3    6284.3873    119338.83 
     200   128000    3137690.9    6295.4536    119344.92 
     300   128000    3138253.9    6321.8969    119350.91 
     400   128000    3138832.7    6288.9526     119356.6 
     500   128000    3139327.1    6256.1914    119362.78 
     600   128000    3139885.5    6257.8044    119368.93 
     700   128000    3140514.4    6209.8384    119374.78 
     800   128000      3141161    6220.8836    119380.33 
     900   128000    3141842.7    6183.5273    119385.59 
    1000   128000    3142288.8    6159.4689    119390.54 
    1100   128000    3142810.3    6135.2073     119395.2 
    1200   128000    3143288.2    6183.7341    119399.55 
    1300   128000    3143718.5    6199.7412    119403.61 
    1400   128000    3144046.3    6211.2795    119407.37 
    1500   128000    3144431.8      6264.59    119410.83 
    1600   128000    3144763.5    6293.3333    119413.98 
    1700   128000    3145075.2     6371.173    119416.84 
    1800   128000    3145299.8    6424.1455    119418.58 
    1900   128000    3145503.5    6457.3244    119420.94 
    2000   128000    3145733.4    6475.4013    119423.01 
    2100   128000    3145949.1    6546.7795    119424.77 
    2200   128000    3146210.8    6562.6627    119426.23 
    2300   128000    3146458.4    6556.3618     119427.4 
    2400   128000    3146759.6     6534.027    119428.26 
    2500   128000    3147000.8    6528.1951    119428.83 
    2600   128000    3147183.6    6556.5227    119429.09 
    2700   128000    3147337.4    6595.6995    119429.27 
    2800   128000    3147430.1    6600.9593    119429.94 
    2900   128000    3147555.2    6615.2599    119430.31 
    3000   128000    3147616.8    6617.3427    119430.37 
    3100   128000    3147738.8    6666.7356    119430.14 
    3200   128000      3147895    6702.1266    119429.61 
    3300   128000    3148166.9    6679.9849    119428.78 
    3400   128000    3148451.7    6662.9218    119427.66 
    3500   128000    3148743.2    6652.1071    119426.29 
    3600   128000    3149005.7    6627.8809    119424.62 
    3700   128000    3149241.7    6631.5724    119422.68 
    3800   128000    3149422.7    6652.2087    119420.38 
    3900   128000    3149613.6    6658.3123    119417.79 
    4000   128000    3149793.7    6650.5988    119415.89 
    4100   128000    3149927.3     6623.857     119416.2 
    4200   128000    3149992.1    6621.7295    119416.68 
    4300   128000    3150066.6    6616.1419    119416.86 
    4400   128000    3150092.1    6634.7472    119416.74 
    4500   128000    3150119.7    6657.0003    119416.32 
    4600   128000    3150135.1    6693.7599     119415.6 
    4700   128000    3150213.4    6705.9873    119414.58 
    4800   128000    3150312.6    6718.5033    119413.26 
    4900   128000    3150414.1     6760.811    119411.65 
    5000   128000    3150570.3    6799.9956    119409.73 
    5100   128000    3150744.4    6807.1908    119407.51 
    5200   128000    3150915.8    6834.0403       119405 
    5300   128000    3151133.3    6845.6086    119402.19 
    5400   128000    3151374.7    6875.0809    119399.14 
    5500   128000    3151632.9     6869.104    119395.73 
    5600   128000    3151864.8    6860.5659    119392.03 
    5700   128000    3152082.6    6892.1489    119391.13 
    5800   128000      3152316    6888.8043       119391 
    5900   128000    3152538.8    6901.6167    119390.55 
    6000   128000    3152809.4     6857.294    119389.81 
    6100   128000    3153066.4    6852.0747     119388.8 
    6200   128000    3153313.8    6837.5369     119387.5 
    6300   128000    3153538.3    6837.8778    119385.93 
    6400   128000    3153802.4    6824.3527    119384.08 
    6500   128000    3154114.8    6824.5852    119381.16 
    6600   128000      3154478    6797.3323    119378.65 
    6700   128000    3154853.2    6753.4738    119375.86 
    6800   128000    3155222.8    6730.2902    119372.72 
    6900   128000    3155633.8    6695.9813    119371.32 
    7000   128000    3156006.9     6669.202    119371.34 
    7100   128000    3156390.6    6645.1332    119371.05 
    7200   128000    3156723.4     6643.147    119370.46 
    7300   128000      3157053    6628.7122    119369.58 
    7400   128000    3157364.9    6598.2377     119368.4 
    7500   128000    3157612.9    6593.7311    119366.91 
    7600   128000    3157842.2    6592.3297    119365.13 
    7700   128000      3158056     6610.049    119363.05 
    7800   128000    3158260.4    6619.8633    119360.72 
    7900   128000    3158411.2    6622.4759    119358.13 
    8000   128000    3158560.2    6621.9104    119355.16 
    8100   128000    3158669.5    6615.1391     119351.9 
    8200   128000    3158725.4    6635.0657    119348.34 
    8300   128000    3158789.8    6673.6449    119344.47 
    8400   128000    3158843.7    6658.7957    119340.36 
    8500   128000    3158865.8     6682.455    119336.03 
    8600   128000    3158819.8     6703.708    119331.43 
    8700   128000    3158732.3    6735.6415    119326.54 
    8800   128000    3158623.6    6774.0503    119321.38 
    8900   128000    3158446.5    6853.0247    119315.93 
    9000   128000    3158300.6    6897.9089    119310.19 
    9100   128000    3158127.8    6914.3141    119304.18 
    9200   128000    3157974.5    6901.6392    119297.88 
    9300   128000    3157773.9    6914.0846    119291.31 
    9400   128000    3157564.8    6951.8101    119284.45 
    9500   128000      3157384    6954.8375    119277.31 
    9600   128000    3157217.9    6956.0424    119269.88 
    9700   128000    3157083.1     6968.498    119262.18 
    9800   128000    3156967.7    6970.3904    119254.37 
    9900   128000    3156909.8    6967.2307    119252.98 
   10000   128000    3156879.5    6949.5361    119252.91 
Loop time of 15.9616 on 8 procs for 10000 steps with 128000 atoms

Performance: 5412.980 tau/day, 626.502 timesteps/s
99.8% CPU use with 8 MPI tasks x 1 OpenMP threads

MPI task timing breakdown:
Section |  min time  |  avg time  |  max time  |%varavg| %total
---------------------------------------------------------------
Pair    | 7.7983     | 8.0313     | 8.2145     |   4.4 | 50.32
Neigh   | 2.529      | 2.607      | 2.6466     |   2.0 | 16.33
Comm    | 1.1475     | 1.184      | 1.2138     |   2.3 |  7.42
Output  | 0.011414   | 0.014521   | 0.017511   |   1.5 |  0.09
Modify  | 2.8348     | 2.9172     | 3.0347     |   4.2 | 18.28
Other   |            | 1.208      |            |       |  7.57

Nlocal:          16000 ave       16015 max       15983 min
Histogram: 1 0 1 1 1 1 1 0 0 2
Nghost:         3716.5 ave        3736 max        3694 min
Histogram: 1 0 0 1 0 3 1 1 0 1
Neighs:        58319.1 ave       58463 max       58227 min
Histogram: 2 0 1 2 0 1 1 0 0 1

Total # of neighbors = 466553
Ave neighs/atom = 3.6449453
Neighbor list builds = 296
Dangerous builds = 0
Total wall time: 0:00:16
Intel(R) VTune(TM) Profiler 2022.2.0 collection completed successfully. Use the "aps --report /home/ubuntu/lammps/bench/aps_result_20220703" command to generate textual and HTML reports for the profiling session.
