LAMMPS (7 Jan 2022)
  using 1 OpenMP thread(s) per MPI task
Reading data file ...
  orthogonal box = (0 0 0) to (40 20 37.2886)
  2 by 1 by 2 MPI processor grid
  reading atoms ...
  32000 atoms
  reading velocities ...
  32000 velocities
  read_data CPU = 0.114 seconds
Replicating atoms ...
  orthogonal box = (0 0 0) to (160 80 37.292229)
  2 by 2 by 1 MPI processor grid
  512000 atoms
  replicate CPU = 0.036 seconds
14592 atoms in group bottom
497408 atoms in group active
  generated 0 of 1 mixed pair_coeff terms from geometric mixing rule
Neighbor list info ...
  update every 1 steps, delay 0 steps, check yes
  max neighbors/atom: 2000, page size: 100000
  master list distance cutoff = 1.1
  ghost atom cutoff = 1.1
  binsize = 0.55, bins = 291 146 68
  1 neighbor lists, perpetual/occasional/extra = 1 0 0
  (1) pair gran/hooke/history, perpetual
      attributes: half, newton off, size, history
      pair build: half/size/bin/newtoff
      stencil: full/bin/3d
      bin: standard
Setting up Verlet run ...
  Unit style    : lj
  Current step  : 0
  Time step     : 0.0001
Per MPI rank memory allocation (min/avg/max) = 63.36 | 63.36 | 63.36 Mbytes
Step Atoms KinEng c_1 Volume 
       0   512000     12546226    25618.021    477340.53 
     100   512000     12548673    25137.549    477355.32 
     200   512000     12550763    25181.814    477379.69 
     300   512000     12553016    25287.588    477403.64 
     400   512000     12555331     25155.81     477426.4 
     500   512000     12557308    25024.766    477451.12 
     600   512000     12559542    25031.218    477475.72 
     700   512000     12562058    24839.354    477499.13 
     800   512000     12564644    24883.534    477521.34 
     900   512000     12567371    24734.109    477542.35 
    1000   512000     12569155    24637.876    477562.17 
    1100   512000     12571241    24540.829    477580.79 
    1200   512000     12573153    24734.936    477598.21 
    1300   512000     12574874    24798.965    477614.44 
    1400   512000     12576185    24845.117    477629.47 
    1500   512000     12577727    25058.358     477643.3 
    1600   512000     12579054    25173.339    477655.94 
    1700   512000     12580301    25484.708    477667.37 
    1800   512000     12581199    25696.549    477674.33 
    1900   512000     12582014    25829.192    477683.78 
    2000   512000     12582934    25901.776    477692.02 
    2100   512000     12583797    26187.374    477699.07 
    2200   512000     12584843    26251.953    477704.93 
    2300   512000     12585833    26226.266    477709.58 
    2400   512000     12587039     26137.42    477713.04 
    2500   512000     12588005    26111.936     477715.3 
    2600   512000     12588723    26239.748    477716.37 
    2700   512000     12589360     26388.43     477717.1 
    2800   512000     12589721    26430.494    477719.76 
    2900   512000     12590190     26474.03    477721.23 
    3000   512000     12590452    26495.934     477721.5 
    3100   512000     12590915    26638.425    477720.57 
    3200   512000     12591509    26793.534    477718.45 
    3300   512000     12592584    26774.021    477715.13 
    3400   512000     12593724    26710.097    477710.66 
    3500   512000     12594896    26628.107    477705.14 
    3600   512000     12596053    26555.513    477698.49 
    3700   512000     12596995     26533.62    477690.72 
    3800   512000     12597758     26566.77    477681.53 
    3900   512000     12598371    26620.215    477671.15 
    4000   512000     12599084    26587.345    477672.91 
    4100   512000     12599610     26529.29    477677.88 
    4200   512000     12599926    26519.652    477681.65 
    4300   512000     12600168    26491.032    477684.22 
    4400   512000     12600311    26503.992    477685.59 
    4500   512000     12600375    26604.259    477685.77 
    4600   512000     12600445    26723.058    477684.75 
    4700   512000     12600647    26810.491    477683.45 
    4800   512000     12600848    26908.151    477681.08 
    4900   512000     12601097    27043.093    477677.51 
    5000   512000     12601443    27177.689    477672.74 
    5100   512000     12601858    27301.708    477666.77 
    5200   512000     12602418    27355.337    477659.61 
    5300   512000     12603077    27487.204    477651.25 
    5400   512000     12603869    27603.905    477641.89 
    5500   512000     12604724    27632.013     477631.5 
    5600   512000     12605584    27628.059    477622.58 
    5700   512000     12606519    27568.514    477625.36 
    5800   512000     12607443    27528.208    477627.01 
    5900   512000     12608436     27516.59    477627.53 
    6000   512000     12609463    27485.532    477626.92 
    6100   512000     12610495     27482.43    477625.18 
    6200   512000     12611584    27428.363    477622.32 
    6300   512000     12612679    27392.515    477618.33 
    6400   512000     12613891    27266.763    477613.21 
    6500   512000     12615093    27194.789    477606.97 
    6600   512000     12616468    27110.445    477599.59 
    6700   512000     12617954     26956.38    477596.91 
    6800   512000     12619429    26832.987    477593.43 
    6900   512000     12620886    26748.217    477589.84 
    7000   512000     12622298    26639.057     477593.4 
    7100   512000     12623642    26579.096    477595.76 
    7200   512000     12624909    26539.484    477596.93 
    7300   512000     12626085    26514.306     477596.9 
    7400   512000     12627155    26500.748    477595.68 
    7500   512000     12628209    26455.143    477593.28 
    7600   512000     12629223    26488.151     477589.8 
    7700   512000     12630180    26454.499    477585.18 
    7800   512000     12630911    26460.864    477579.44 
    7900   512000     12631547    26513.837    477572.58 
    8000   512000     12632189    26545.498    477564.58 
    8100   512000     12632779    26591.519    477555.46 
    8200   512000     12633341    26605.309    477545.21 
    8300   512000     12633835    26689.392    477533.83 
    8400   512000     12634331    26741.101    477521.32 
    8500   512000     12634812     26767.47    477507.69 
    8600   512000     12635157    26829.594    477492.93 
    8700   512000     12635468    26872.757    477477.04 
    8800   512000     12635565    26951.645    477460.03 
    8900   512000     12635541    26999.264    477441.88 
    9000   512000     12635401    27060.193    477422.61 
    9100   512000     12635114    27134.648    477402.21 
    9200   512000     12634745     27241.29    477380.69 
    9300   512000     12634256    27310.463    477358.03 
    9400   512000     12633745    27380.308    477334.25 
    9500   512000     12633125    27492.052    477309.34 
    9600   512000     12632473    27617.081    477283.31 
    9700   512000     12631900    27675.898    477256.14 
    9800   512000     12631533     27692.45    477218.17 
    9900   512000     12631111    27723.937    477188.38 
   10000   512000     12630771    27738.929    477213.89 
Loop time of 133.443 on 4 procs for 10000 steps with 512000 atoms

Performance: 647.468 tau/day, 74.938 timesteps/s
99.9% CPU use with 4 MPI tasks x 1 OpenMP threads

MPI task timing breakdown:
Section |  min time  |  avg time  |  max time  |%varavg| %total
---------------------------------------------------------------
Pair    | 71.053     | 71.517     | 71.986     |   4.9 | 53.59
Neigh   | 19.885     | 19.915     | 19.948     |   0.5 | 14.92
Comm    | 4.9041     | 4.9359     | 4.9688     |   1.1 |  3.70
Output  | 0.066579   | 0.075097   | 0.08356    |   2.9 |  0.06
Modify  | 26.711     | 27.569     | 28.65      |  15.6 | 20.66
Other   |            | 9.431      |            |       |  7.07

Nlocal:         128000 ave      128006 max      127989 min
Histogram: 1 0 0 0 0 0 0 1 1 1
Nghost:        10794.5 ave       10807 max       10781 min
Histogram: 1 0 0 0 1 0 1 0 0 1
Neighs:         452291 ave      452416 max      451986 min
Histogram: 1 0 0 0 0 0 0 0 1 2

Total # of neighbors = 1809165
Ave neighs/atom = 3.5335254
Neighbor list builds = 298
Dangerous builds = 0
Total wall time: 0:02:13
Intel(R) VTune(TM) Profiler 2022.2.0 collection completed successfully. Use the "aps --report /home/ubuntu/lammps/bench/aps_result_20220703" command to generate textual and HTML reports for the profiling session.
