LAMMPS (7 Jan 2022)
  using 1 OpenMP thread(s) per MPI task
Reading data file ...
  orthogonal box = (-16.796 -16.796 -16.796) to (16.796 16.796 16.796)
  1 by 1 by 1 MPI processor grid
  reading atoms ...
  32000 atoms
  reading velocities ...
  32000 velocities
  scanning bonds ...
  1 = max bonds/atom
  reading bonds ...
  31680 bonds
Finding 1-2 1-3 1-4 neighbors ...
  special bond factors lj:    0        1        1       
  special bond factors coul:  0        1        1       
     2 = max # of 1-2 neighbors
     2 = max # of special neighbors
  special bonds CPU = 0.006 seconds
  read_data CPU = 0.143 seconds
----------------------------------------------------------
Using INTEL Package without Coprocessor.
Compiler: Intel Classic C++ 20.21.5 / Intel(R) C++ g++ 9.3 mode
SIMD compiler directives: Enabled
Precision: mixed
----------------------------------------------------------
  generated 0 of 0 mixed pair_coeff terms from geometric mixing rule
Neighbor list info ...
  update every 1 steps, delay 1 steps, check yes
  max neighbors/atom: 2000, page size: 100000
  master list distance cutoff = 1.52
  ghost atom cutoff = 1.52
  binsize = 0.76, bins = 45 45 45
  1 neighbor lists, perpetual/occasional/extra = 1 0 0
  (1) pair lj/cut/intel, perpetual
      attributes: half, newton on, intel
      pair build: half/bin/newton/intel
      stencil: half/bin/3d
      bin: intel
Setting up Verlet run ...
  Unit style    : lj
  Current step  : 0
  Time step     : 0.012
WARNING: Communication cutoff 1.52 is shorter than a bond length based estimate of 1.855. This may lead to errors. (../comm.cpp:723)
Per MPI rank memory allocation (min/avg/max) = 283.8 | 283.8 | 283.8 Mbytes
Step Temp E_pair E_mol TotEng Press 
       0   0.97029772   0.44484085    20.494523    22.394765    4.6721835 
     100   0.97150242   0.43934935    20.503906    22.400463    4.7013685 
     200   0.97240698   0.44458964    20.507848    22.411002    4.6529771 
     300   0.97777245   0.44522324    20.500137    22.411974    4.8178325 
     400    0.9813296   0.44460528    20.509821    22.426375    4.7941232 
     500   0.98225115   0.45054691    20.506688    22.430565    4.7012642 
     600   0.97932691   0.45118446    20.509161     22.42929    4.7225762 
     700    0.9875303    0.4433524    20.510086    22.434688    4.7015964 
     800   0.99079527   0.44499947    20.511385    22.442531    4.7666309 
     900   0.99233557   0.45042414    20.508714    22.447595     4.711868 
    1000   0.98731246   0.45642623    20.509119    22.446467    4.7353982 
    1100   0.99359976   0.44924352    20.512458    22.452055    4.7118779 
    1200   0.99690051   0.44892857    20.514516    22.458749    4.8012386 
    1300   0.99035425   0.45300614    20.518063    22.456554    4.8380624 
    1400   0.99753598   0.44888605    20.510076     22.45522    4.7142155 
    1500   0.98925371    0.4586105    20.513444    22.455889    4.7279316 
    1600   0.99874581    0.4496099    20.514901    22.462583    4.7008364 
    1700   0.99572215   0.45587842    20.518453    22.467868    4.7927015 
    1800   0.99656335   0.45281549    20.518771    22.466384    4.7964346 
    1900    1.0009516   0.45621542    20.514311    22.471907    4.7414815 
    2000   0.99821145   0.45434577    20.521042    22.472659    4.8332395 
    2100   0.99814875   0.45025727    20.518442    22.465876    4.7917994 
    2200    1.0065616   0.44989035    20.506611    22.466297    4.7793634 
    2300   0.99809522   0.45181027    20.518511    22.467418    4.7447564 
    2400   0.99924191   0.45034992    20.514847    22.464013    4.7630173 
    2500    1.0011951   0.45410078    20.510889    22.466735    4.8626099 
    2600   0.99643812   0.45773859    20.518817    22.471166    4.8325621 
    2700    1.0006603   0.45365895    20.516584    22.471186    4.7001113 
    2800    1.0034952   0.46125637    20.513244    22.479696    4.7975457 
    2900    1.0011901   0.45844408    20.524412    22.484594    4.8570337 
    3000    1.0031066    0.4560483    20.525871    22.486533     4.786379 
    3100    1.0083334   0.45457179    20.515744    22.482769    4.8016389 
    3200    1.0019254   0.45976488    20.513832    22.476438     4.811558 
    3300    1.0072012   0.45202591    20.520653    22.483434    4.8894247 
    3400    1.0064274    0.4533457    20.519674    22.482614    4.8144919 
    3500    1.0016913   0.45635022     20.52314    22.481981    4.8262357 
    3600    1.0085885   0.45294301    20.524306    22.490084    4.8236242 
    3700    1.0071657   0.46491473    20.518688    22.494304    4.8536218 
    3800    1.0078943   0.45781865    20.523859    22.493472    4.9078915 
    3900    1.0050258   0.45987321    20.520808    22.488172    4.7899533 
    4000    1.0072564   0.45738945    20.515812    22.484039    4.7811303 
    4100    1.0029401   0.45598102    20.510158    22.470502    4.8797171 
    4200     1.007023   0.45398256     20.51287     22.47734    4.8017457 
    4300    1.0033665   0.45137812    20.518307    22.474688    4.6933929 
    4400    1.0034414   0.44678809    20.518729    22.470632    4.6866665 
    4500    1.0030721   0.44990267    20.517564    22.472028     4.807301 
    4600   0.99860031   0.45342922    20.516242    22.467525    4.7100086 
    4700    1.0025614   0.44775222    20.508997    22.460544    4.7777714 
    4800    1.0003474   0.45165679    20.513899     22.46603    4.7587353 
    4900    1.0001318   0.46007484    20.506041    22.466267    4.8266223 
    5000    0.9978834   0.45489864    20.514966    22.466643    4.7586254 
    5100   0.99636578   0.45040576    20.516917    22.461825    4.7258845 
    5200    1.0050756   0.45151507    20.507966    22.467048    4.7389503 
    5300    1.0014555    0.4525362    20.512903    22.467576    4.7655179 
    5400   0.99806512   0.45700731    20.511653    22.465711    4.7614982 
    5500    1.0002607    0.4539644    20.507072     22.46138    4.7555979 
    5600   0.99334228   0.45555981    20.516035    22.461562     4.768441 
    5700    1.0005119   0.45392739    20.514151    22.468799    4.7362739 
    5800     1.002937   0.45218374     20.51991    22.476453    4.8597095 
    5900    1.0055558   0.44910752    20.517126     22.47452    4.7588068 
    6000    1.0088795   0.45216892    20.514302    22.479742     4.785803 
    6100   0.99850573   0.45929693    20.525572    22.482581    4.9068264 
    6200      1.00609   0.45434334    20.518491    22.481922    4.7731306 
    6300    1.0045198   0.45756536    20.515233    22.479531    4.8249788 
    6400    1.0096804   0.45388549      20.5146    22.482959    4.8093079 
    6500    1.0028803   0.45722995    20.520394    22.481898    4.7690169 
    6600    1.0022194    0.4623857    20.514954    22.480622    4.8001326 
    6700    1.0060227   0.45150829    20.515138    22.475633    4.7744107 
    6800   0.99607992   0.45312387    20.517322    22.464519    4.8444279 
    6900    1.0014147   0.45019641    20.512695    22.464967    4.7202966 
    7000   0.99163823   0.45465992    20.521633    22.463704    4.7712437 
    7100   0.99805535   0.45285068    20.519505    22.469392    4.7807414 
    7200    1.0016094   0.45079031    20.521095    22.474253    4.7802615 
    7300   0.99736188   0.45585295    20.517512    22.469361    4.8408394 
    7400    1.0065436   0.45007596    20.507016     22.46686    4.8192718 
    7500    1.0030076    0.4498502    20.509392    22.463707    4.7820699 
    7600   0.99887902   0.45121671    20.514372     22.46386    4.6766666 
    7700    0.9996631   0.45341415    20.518697    22.471558     4.762264 
    7800   0.99841488   0.45468248    20.519912     22.47217    4.8385909 
    7900   0.99724732   0.45645924    20.521446     22.47373    4.8396172 
    8000    1.0017205   0.44950665    20.518539    22.470579    4.8574783 
    8100    1.0055587   0.45154313    20.516101    22.475936    4.8057104 
    8200   0.99602163    0.4507757    20.520773    22.465534      4.74572 
    8300   0.99622539   0.44497238    20.516752    22.456016    4.7623324 
    8400   0.99690383   0.44852135    20.514753    22.458583     4.738617 
    8500   0.99288384   0.45112554    20.516721    22.457125    4.7440399 
    8600   0.99126982   0.45383826    20.515709    22.456405    4.8634131 
    8700   0.99524402   0.45565217    20.514031    22.462502    4.8423232 
    8800   0.99127239   0.44967073     20.51635    22.452883    4.7885751 
    8900   0.99090099   0.45374575    20.514426    22.454477    4.8272489 
    9000   0.99358147   0.45201745    20.508971    22.451314    4.7417691 
    9100   0.99351464   0.45116056    20.511264     22.45265    4.7936718 
    9200   0.99266595      0.45346    20.509754    22.452166    4.7389507 
    9300   0.99384214   0.44940806    20.515227    22.455351    4.8057451 
    9400   0.99675825   0.44796488    20.517631    22.460686    4.7771634 
    9500    1.0090077   0.44125614    20.512433    22.467153    4.6872914 
    9600    1.0001555   0.45208891    20.517011    22.469286    4.7677259 
    9700   0.99998996   0.45464268    20.516441    22.471021    4.8176172 
    9800    1.0054709   0.45280112     20.50452    22.465481    4.7572572 
    9900   0.99950946   0.45291895     20.51281    22.464946    4.7971646 
   10000    0.9962441   0.45387632    20.518935    22.467131    4.7631298 
Loop time of 63.6646 on 1 procs for 10000 steps with 32000 atoms

Performance: 162853.360 tau/day, 157.073 timesteps/s
100.0% CPU use with 1 MPI tasks x 1 OpenMP threads

MPI task timing breakdown:
Section |  min time  |  avg time  |  max time  |%varavg| %total
---------------------------------------------------------------
Pair    | 20.129     | 20.129     | 20.129     |   0.0 | 31.62
Bond    | 3.5316     | 3.5316     | 3.5316     |   0.0 |  5.55
Neigh   | 16.23      | 16.23      | 16.23      |   0.0 | 25.49
Comm    | 6.0578     | 6.0578     | 6.0578     |   0.0 |  9.52
Output  | 0.0061147  | 0.0061147  | 0.0061147  |   0.0 |  0.01
Modify  | 16.018     | 16.018     | 16.018     |   0.0 | 25.16
Other   |            | 1.692      |            |       |  2.66

Nlocal:          32000 ave       32000 max       32000 min
Histogram: 1 0 0 0 0 0 0 0 0 0
Nghost:           9437 ave        9437 max        9437 min
Histogram: 1 0 0 0 0 0 0 0 0 0
Neighs:         187238 ave      187238 max      187238 min
Histogram: 1 0 0 0 0 0 0 0 0 0

Total # of neighbors = 187238
Ave neighs/atom = 5.8511875
Ave special neighs/atom = 1.98
Neighbor list builds = 2510
Dangerous builds = 0
Total wall time: 0:01:03
Intel(R) VTune(TM) Profiler 2022.2.0 collection completed successfully. Use the "aps --report /home/ubuntu/lammps/bench/aps_result_20220703" command to generate textual and HTML reports for the profiling session.
