LAMMPS (7 Jan 2022)
  using 1 OpenMP thread(s) per MPI task
Reading data file ...
  orthogonal box = (-16.796 -16.796 -16.796) to (16.796 16.796 16.796)
  2 by 2 by 2 MPI processor grid
  reading atoms ...
  32000 atoms
  reading velocities ...
  32000 velocities
  scanning bonds ...
  1 = max bonds/atom
  reading bonds ...
  31680 bonds
Finding 1-2 1-3 1-4 neighbors ...
  special bond factors lj:    0        1        1       
  special bond factors coul:  0        1        1       
     2 = max # of 1-2 neighbors
     2 = max # of special neighbors
  special bonds CPU = 0.028 seconds
  read_data CPU = 0.365 seconds
Replicating atoms ...
  orthogonal box = (-16.796 -16.796 -16.796) to (50.388 50.388 50.388)
  2 by 2 by 2 MPI processor grid
  256000 atoms
  253440 bonds
Finding 1-2 1-3 1-4 neighbors ...
  special bond factors lj:    0        1        1       
  special bond factors coul:  0        1        1       
     2 = max # of 1-2 neighbors
     2 = max # of special neighbors
  special bonds CPU = 0.007 seconds
  replicate CPU = 0.063 seconds
----------------------------------------------------------
Using INTEL Package without Coprocessor.
Compiler: Intel Classic C++ 20.21.5 / Intel(R) C++ g++ 9.3 mode
SIMD compiler directives: Enabled
Precision: single
----------------------------------------------------------
  generated 0 of 0 mixed pair_coeff terms from geometric mixing rule
Neighbor list info ...
  update every 1 steps, delay 1 steps, check yes
  max neighbors/atom: 2000, page size: 100000
  master list distance cutoff = 1.52
  ghost atom cutoff = 1.52
  binsize = 0.76, bins = 89 89 89
  1 neighbor lists, perpetual/occasional/extra = 1 0 0
  (1) pair lj/cut/intel, perpetual
      attributes: half, newton on, intel
      pair build: half/bin/newton/intel
      stencil: half/bin/3d
      bin: intel
Setting up Verlet run ...
  Unit style    : lj
  Current step  : 0
  Time step     : 0.012
WARNING: Communication cutoff 1.52 is shorter than a bond length based estimate of 1.855. This may lead to errors. (../comm.cpp:723)
Per MPI rank memory allocation (min/avg/max) = 285 | 285 | 285 Mbytes
Step Temp E_pair E_mol TotEng Press 
       0   0.97027119   0.44483942    20.494342    22.394583    4.6721849 
     100   0.97296828   0.44098787    20.500168    22.400603    4.6649776 
Loop time of 3.51569 on 8 procs for 100 steps with 256000 atoms

Performance: 29490.642 tau/day, 28.444 timesteps/s
75.4% CPU use with 8 MPI tasks x 1 OpenMP threads

MPI task timing breakdown:
Section |  min time  |  avg time  |  max time  |%varavg| %total
---------------------------------------------------------------
Pair    | 0.19876    | 0.23417    | 0.33822    |  11.3 |  6.66
Bond    | 0.029743   | 0.033129   | 0.045714   |   2.6 |  0.94
Neigh   | 0.39795    | 0.43544    | 0.46147    |   4.0 | 12.39
Comm    | 1.3464     | 1.5953     | 2.0087     |  16.7 | 45.38
Output  | 7.8771e-05 | 8.7937e-05 | 9.6445e-05 |   0.0 |  0.00
Modify  | 0.1625     | 0.19788    | 0.34808    |  13.8 |  5.63
Other   |            | 1.02       |            |       | 29.00

Nlocal:          32000 ave       32025 max       31963 min
Histogram: 1 0 0 0 1 2 1 1 1 1
Nghost:           9492 ave        9547 max        9445 min
Histogram: 1 0 1 2 0 1 2 0 0 1
Neighs:         187562 ave      188032 max      187220 min
Histogram: 2 1 0 2 0 1 0 0 0 2

Total # of neighbors = 1500494
Ave neighs/atom = 5.8613047
Ave special neighs/atom = 1.98
Neighbor list builds = 25
Dangerous builds = 0
Total wall time: 0:00:04
Intel(R) VTune(TM) Profiler 2022.2.0 collection completed successfully. Use the "aps --report /home/ubuntu/lammps/bench/aps_result_20220531" command to generate textual and HTML reports for the profiling session.
