LAMMPS (7 Jan 2022)
  using 1 OpenMP thread(s) per MPI task
Reading data file ...
  orthogonal box = (-16.796 -16.796 -16.796) to (16.796 16.796 16.796)
  4 by 4 by 4 MPI processor grid
  reading atoms ...
  32000 atoms
  reading velocities ...
  32000 velocities
  scanning bonds ...
  1 = max bonds/atom
  reading bonds ...
  31680 bonds
Finding 1-2 1-3 1-4 neighbors ...
  special bond factors lj:    0        1        1       
  special bond factors coul:  0        1        1       
     2 = max # of 1-2 neighbors
     2 = max # of special neighbors
  special bonds CPU = 0.007 seconds
  read_data CPU = 0.112 seconds
----------------------------------------------------------
Using INTEL Package without Coprocessor.
Compiler: Intel Classic C++ 20.21.5 / Intel(R) C++ g++ 9.3 mode
SIMD compiler directives: Enabled
Precision: double
----------------------------------------------------------
  generated 0 of 0 mixed pair_coeff terms from geometric mixing rule
Neighbor list info ...
  update every 1 steps, delay 1 steps, check yes
  max neighbors/atom: 2000, page size: 100000
  master list distance cutoff = 1.52
  ghost atom cutoff = 1.52
  binsize = 0.76, bins = 45 45 45
  1 neighbor lists, perpetual/occasional/extra = 1 0 0
  (1) pair lj/cut/intel, perpetual
      attributes: half, newton on, intel
      pair build: half/bin/newton/intel
      stencil: half/bin/3d
      bin: intel
Setting up Verlet run ...
  Unit style    : lj
  Current step  : 0
  Time step     : 0.012
WARNING: Communication cutoff 1.52 is shorter than a bond length based estimate of 1.855. This may lead to errors. (../comm.cpp:723)
Per MPI rank memory allocation (min/avg/max) = 8.405 | 8.583 | 8.755 Mbytes
Step Temp E_pair E_mol TotEng Press 
       0   0.97029772   0.44484087    20.494523    22.394765    4.6721833 
     100   0.96979674   0.44462213    20.502875    22.402147    4.6866823 
Loop time of 0.0242813 on 64 procs for 100 steps with 32000 atoms

Performance: 4269957.469 tau/day, 4118.400 timesteps/s
73.1% CPU use with 64 MPI tasks x 1 OpenMP threads

MPI task timing breakdown:
Section |  min time  |  avg time  |  max time  |%varavg| %total
---------------------------------------------------------------
Pair    | 0.0023771  | 0.0028452  | 0.0031832  |   0.4 | 11.72
Bond    | 0.00056408 | 0.0006467  | 0.00087228 |   0.0 |  2.66
Neigh   | 0.0054105  | 0.005531   | 0.0056513  |   0.1 | 22.78
Comm    | 0.010084   | 0.010543   | 0.01114    |   0.3 | 43.42
Output  | 2.5614e-05 | 5.1463e-05 | 7.4404e-05 |   0.0 |  0.21
Modify  | 0.0026887  | 0.0030121  | 0.003218   |   0.4 | 12.41
Other   |            | 0.001652   |            |       |  6.80

Nlocal:            500 ave         513 max         484 min
Histogram: 2 3 4 7 8 11 10 12 5 2
Nghost:        764.609 ave         786 max         743 min
Histogram: 2 2 6 19 5 4 13 2 7 4
Neighs:        2928.73 ave        3056 max        2795 min
Histogram: 3 2 7 7 9 12 12 7 2 3

Total # of neighbors = 187439
Ave neighs/atom = 5.8574687
Ave special neighs/atom = 1.98
Neighbor list builds = 25
Dangerous builds = 0
Total wall time: 0:00:00
Intel(R) VTune(TM) Profiler 2022.2.0 collection completed successfully. Use the "aps --report /home/ubuntu/lammps/bench/aps_result_20220601" command to generate textual and HTML reports for the profiling session.
