LAMMPS (7 Jan 2022)
  using 1 OpenMP thread(s) per MPI task
Reading data file ...
  orthogonal box = (-16.796 -16.796 -16.796) to (16.796 16.796 16.796)
  4 by 4 by 4 MPI processor grid
  reading atoms ...
  32000 atoms
  reading velocities ...
  32000 velocities
  scanning bonds ...
  1 = max bonds/atom
  reading bonds ...
  31680 bonds
Finding 1-2 1-3 1-4 neighbors ...
  special bond factors lj:    0        1        1       
  special bond factors coul:  0        1        1       
     2 = max # of 1-2 neighbors
     2 = max # of special neighbors
  special bonds CPU = 0.007 seconds
  read_data CPU = 0.108 seconds
Replicating atoms ...
  orthogonal box = (-16.796 -16.796 -16.796) to (117.572 117.572 117.572)
  4 by 4 by 4 MPI processor grid
  2048000 atoms
  2027520 bonds
Finding 1-2 1-3 1-4 neighbors ...
  special bond factors lj:    0        1        1       
  special bond factors coul:  0        1        1       
     2 = max # of 1-2 neighbors
     2 = max # of special neighbors
  special bonds CPU = 0.017 seconds
  replicate CPU = 0.069 seconds
----------------------------------------------------------
Using INTEL Package without Coprocessor.
Compiler: Intel Classic C++ 20.21.5 / Intel(R) C++ g++ 9.3 mode
SIMD compiler directives: Enabled
Precision: single
----------------------------------------------------------
  generated 0 of 0 mixed pair_coeff terms from geometric mixing rule
Neighbor list info ...
  update every 1 steps, delay 1 steps, check yes
  max neighbors/atom: 2000, page size: 100000
  master list distance cutoff = 1.52
  ghost atom cutoff = 1.52
  binsize = 0.76, bins = 177 177 177
  1 neighbor lists, perpetual/occasional/extra = 1 0 0
  (1) pair lj/cut/intel, perpetual
      attributes: half, newton on, intel
      pair build: half/bin/newton/intel
      stencil: half/bin/3d
      bin: intel
Setting up Verlet run ...
  Unit style    : lj
  Current step  : 0
  Time step     : 0.012
WARNING: Communication cutoff 1.52 is shorter than a bond length based estimate of 1.855. This may lead to errors. (../comm.cpp:723)
Per MPI rank memory allocation (min/avg/max) = 285 | 285 | 285 Mbytes
Step Temp E_pair E_mol TotEng Press 
       0   0.97026787   0.44483991    20.494341    22.394582    4.6721835 
     100   0.97351002   0.44127268      20.5018    22.403337    4.6878235 
Loop time of 1.14979 on 64 procs for 100 steps with 2048000 atoms

Performance: 90173.101 tau/day, 86.973 timesteps/s
97.8% CPU use with 64 MPI tasks x 1 OpenMP threads

MPI task timing breakdown:
Section |  min time  |  avg time  |  max time  |%varavg| %total
---------------------------------------------------------------
Pair    | 0.23324    | 0.25736    | 0.2864     |   4.7 | 22.38
Bond    | 0.03594    | 0.042432   | 0.050948   |   3.1 |  3.69
Neigh   | 0.2579     | 0.25965    | 0.26114    |   0.2 | 22.58
Comm    | 0.27238    | 0.30396    | 0.33224    |   4.6 | 26.44
Output  | 0.0001491  | 0.0004033  | 0.00068534 |   0.0 |  0.04
Modify  | 0.18406    | 0.21033    | 0.23814    |   5.1 | 18.29
Other   |            | 0.07565    |            |       |  6.58

Nlocal:          32000 ave       32050 max       31941 min
Histogram: 1 4 5 3 17 8 7 13 3 3
Nghost:        9501.41 ave        9582 max        9414 min
Histogram: 1 1 7 7 13 12 15 4 2 2
Neighs:         187462 ave      187930 max      186944 min
Histogram: 2 7 4 7 7 12 10 4 6 5

Total # of neighbors = 11997572
Ave neighs/atom = 5.8581895
Ave special neighs/atom = 1.98
Neighbor list builds = 26
Dangerous builds = 0
Total wall time: 0:00:01
Intel(R) VTune(TM) Profiler 2022.2.0 collection completed successfully. Use the "aps --report /home/ubuntu/lammps/bench/aps_result_20220601" command to generate textual and HTML reports for the profiling session.
