LAMMPS (7 Jan 2022)
  using 1 OpenMP thread(s) per MPI task
Reading data file ...
  orthogonal box = (-16.796 -16.796 -16.796) to (16.796 16.796 16.796)
  1 by 2 by 2 MPI processor grid
  reading atoms ...
  32000 atoms
  reading velocities ...
  32000 velocities
  scanning bonds ...
  1 = max bonds/atom
  reading bonds ...
  31680 bonds
Finding 1-2 1-3 1-4 neighbors ...
  special bond factors lj:    0        1        1       
  special bond factors coul:  0        1        1       
     2 = max # of 1-2 neighbors
     2 = max # of special neighbors
  special bonds CPU = 0.002 seconds
  read_data CPU = 0.122 seconds
Replicating atoms ...
  orthogonal box = (-16.796 -16.796 -16.796) to (50.388 50.388 50.388)
  1 by 2 by 2 MPI processor grid
  256000 atoms
  253440 bonds
Finding 1-2 1-3 1-4 neighbors ...
  special bond factors lj:    0        1        1       
  special bond factors coul:  0        1        1       
     2 = max # of 1-2 neighbors
     2 = max # of special neighbors
  special bonds CPU = 0.016 seconds
  replicate CPU = 0.035 seconds
----------------------------------------------------------
Using INTEL Package without Coprocessor.
Compiler: Intel Classic C++ 20.21.5 / Intel(R) C++ g++ 9.3 mode
SIMD compiler directives: Enabled
Precision: mixed
----------------------------------------------------------
  generated 0 of 0 mixed pair_coeff terms from geometric mixing rule
Neighbor list info ...
  update every 1 steps, delay 1 steps, check yes
  max neighbors/atom: 2000, page size: 100000
  master list distance cutoff = 1.52
  ghost atom cutoff = 1.52
  binsize = 0.76, bins = 89 89 89
  1 neighbor lists, perpetual/occasional/extra = 1 0 0
  (1) pair lj/cut/intel, perpetual
      attributes: half, newton on, intel
      pair build: half/bin/newton/intel
      stencil: half/bin/3d
      bin: intel
Setting up Verlet run ...
  Unit style    : lj
  Current step  : 0
  Time step     : 0.012
WARNING: Communication cutoff 1.52 is shorter than a bond length based estimate of 1.855. This may lead to errors. (../comm.cpp:723)
Per MPI rank memory allocation (min/avg/max) = 566.6 | 566.6 | 566.6 Mbytes
Step Temp E_pair E_mol TotEng Press 
       0   0.97027119   0.44484088    20.494523    22.394765    4.6721834 
     100   0.97520961   0.44000761    20.503592    22.406409    4.7012674 
     200   0.97806842   0.44390949    20.506894      22.4179    4.7229373 
     300   0.98269696   0.44630232    20.506123    22.426465    4.7238699 
     400   0.98575852   0.44543674    20.508442    22.432511    4.7269754 
     500   0.98771209   0.44722407    20.509236    22.438022    4.7376446 
     600   0.98827336   0.44974431    20.511711     22.44386    4.7716836 
     700   0.99059177   0.45008097    20.511825    22.447788    4.7605409 
     800   0.99431719   0.44684595      20.5138    22.452116    4.7662155 
     900   0.99401925   0.45285999    20.513879    22.457762    4.7777668 
    1000   0.99794577   0.45216889    20.511597    22.460679     4.797224 
    1100   0.99745706   0.45090113    20.513183    22.460263    4.7681988 
    1200   0.99592684   0.45272282    20.513238    22.459846    4.7708463 
    1300   0.99681831   0.45251317    20.512533    22.460267    4.7889528 
    1400   0.99644578   0.45470509    20.513789    22.463157    4.7941276 
    1500   0.99904703   0.45170924    20.512364    22.462637    4.8091073 
    1600   0.99920531   0.45331136    20.513572    22.465686     4.763361 
    1700   0.99925681   0.45457874    20.514599    22.468057    4.8186614 
    1800    1.0001979   0.45487414    20.515066    22.470231     4.800122 
    1900     1.001757   0.45339796    20.517568    22.473595    4.7829458 
    2000    1.0033566   0.45220071    20.515244    22.472474    4.7734253 
    2100    1.0024385   0.45289964     20.51499    22.471541    4.7754241 
    2200    1.0011576   0.45437861    20.517205    22.473314    4.8168529 
    2300    1.0016103   0.45520687    20.515922    22.473538    4.8063521 
    2400    1.0017367   0.45414806    20.517806    22.474554     4.803561 
    2500    1.0031178   0.45392006    20.515302    22.473893    4.7939637 
    2600    1.0009274    0.4564741    20.515511    22.473371    4.8365353 
    2700     1.002739    0.4548631    20.515988    22.474954     4.823638 
    2800    1.0003566   0.45454442    20.517933    22.473007    4.8055588 
    2900    1.0011881    0.4534664    20.516672    22.471915    4.7891275 
    3000     1.001777   0.45394441    20.516585    22.473189    4.8256347 
    3100    1.0017445    0.4542423    20.516798    22.473652    4.7800383 
    3200   0.99946893    0.4557277    20.518948    22.473873    4.7856321 
    3300      1.00223   0.45121571    20.516057    22.470612     4.789541 
    3400   0.99905268   0.45546646    20.514798    22.468837    4.8189037 
    3500   0.99928619    0.4542377    20.515059    22.468221    4.7863148 
    3600    1.0008151   0.45316648    20.516178    22.470561    4.8141128 
    3700    1.0015025   0.45606004    20.513575    22.471883    4.7875437 
    3800    1.0019535   0.45475126    20.516681    22.474357      4.77747 
    3900    1.0028357   0.45549812    20.514339    22.474085    4.7922979 
    4000    1.0042622   0.45327908    20.514284     22.47395    4.7689541 
    4100    1.0009221   0.45479815    20.515639    22.471815    4.8096595 
    4200    1.0007324   0.45296949    20.515959    22.470021    4.7933533 
    4300    1.0016273   0.45381163    20.513792    22.470038    4.8099101 
    4400    1.0016882    0.4527429    20.515522    22.470791     4.813816 
    4500    1.0013179    0.4508797    20.516075    22.468926    4.7894986 
    4600   0.99955925   0.45172473      20.5155    22.466558    4.7674077 
    4700   0.99977614   0.45411205    20.513814    22.467584    4.8006451 
    4800    1.0009737   0.45319898    20.513339    22.467993    4.7860659 
    4900    1.0007223   0.45295505    20.514606    22.468638    4.7753473 
    5000    1.0002233   0.45184834    20.517213     22.46939    4.7770459 
    5100    0.9976241   0.45316945    20.518858    22.468458    4.7511916 
    5200   0.99911459   0.45380049     20.51486    22.467327    4.7909175 
    5300   0.99834108   0.45468498     20.51487    22.467061    4.8011079 
    5400    0.9979453     0.455998    20.515964    22.468874     4.800342 
    5500   0.99958931   0.45467391    20.514055    22.468107    4.7944579 
    5600   0.99870843   0.45409053    20.514997    22.467144    4.8005571 
    5700   0.99778329   0.45456626    20.515889    22.467124    4.7986018 
    5800   0.99961995   0.45435904    20.514644    22.468427    4.8034398 
    5900     1.002373   0.44965246    20.515226    22.468432    4.7541608 
    6000    1.0007595   0.45137495    20.516293    22.468802    4.7656941 
    6100   0.99918565   0.45378393    20.514816    22.467372    4.7749387 
    6200   0.99717209   0.45401275    20.516001    22.465766    4.7934746 
    6300   0.99611802   0.45461342    20.518242    22.467027    4.8155411 
    6400    1.0028272   0.45335958    20.514304    22.471899    4.7952375 
    6500    1.0001774   0.45493683    20.516453     22.47165    4.7734329 
    6600   0.99949831   0.45457007    20.514379    22.468191    4.7969396 
    6700    1.0009923    0.4542714    20.514395    22.470149    4.7847949 
    6800   0.99936297   0.45576494    20.516265    22.471069    4.7964795 
    6900    1.0014249   0.45229301    20.515304    22.469729    4.8042064 
    7000    1.0004736    0.4526145     20.51754    22.470859    4.7679093 
    7100    1.0023227   0.45301183    20.516227    22.472717    4.7708133 
    7200    1.0033127   0.45298046    20.514729    22.472672    4.8007787 
    7300    1.0014144   0.45392351    20.515157    22.471196    4.7895297 
    7400    1.0031087   0.45259761    20.515886    22.473141    4.7836632 
    7500    1.0025459   0.45493727    20.516781    22.475531    4.8112414 
    7600     1.002092   0.45543511    20.518372    22.476939    4.7868739 
    7700    1.0026613   0.45500758    20.518044    22.477037    4.8078097 
    7800    1.0030037   0.45564463    20.518678    22.478822    4.8381672 
    7900    1.0035161   0.45563415    20.517307    22.478209       4.8029 
    8000    1.0047269   0.45353321    20.517028    22.477645    4.8025745 
    8100    1.0045501   0.45644721    20.515034    22.478301    4.8089585 
    8200    1.0064845   0.45241771    20.515853    22.477991    4.7764726 
    8300     1.001539   0.45515142    20.517369    22.474823    4.8068153 
    8400     1.004187    0.4552036    20.514435    22.475913    4.7702189 
    8500    1.0041131   0.45464752    20.515605    22.476416    4.7897953 
    8600    1.0046149   0.45407969    20.517988    22.478984    4.7787087 
    8700    1.0019321   0.45520734    20.519177    22.477277    4.8301679 
    8800    1.0048432    0.4547573    20.516628    22.478645    4.8007477 
    8900     1.002889   0.45563602    20.516531    22.476495    4.7852395 
    9000    1.0008966   0.45536399    20.517759    22.474462    4.8235554 
    9100    1.0018256   0.45402021    20.516036    22.472789    4.7921048 
    9200    1.0017983   0.45503733    20.514799    22.472528    4.8094644 
    9300    1.0006591   0.45339752    20.516482    22.470862    4.7802697 
    9400    1.0028798   0.45262984    20.516407     22.47335    4.7924481 
    9500    1.0023809   0.45516456    20.513952    22.472682    4.7949801 
    9600    1.0025748   0.45375419    20.516359     22.47397    4.8085761 
    9700    1.0013026   0.45333425    20.515378     22.47066    4.7848406 
    9800   0.99992656   0.45251864    20.516922    22.469325    4.8058218 
    9900    1.0010157   0.45264842    20.515422    22.469588    4.8157352 
   10000    1.0010027   0.45343508     20.51693    22.471864    4.8023681 
Loop time of 141.485 on 4 procs for 10000 steps with 256000 atoms

Performance: 73279.673 tau/day, 70.679 timesteps/s
99.7% CPU use with 4 MPI tasks x 1 OpenMP threads

MPI task timing breakdown:
Section |  min time  |  avg time  |  max time  |%varavg| %total
---------------------------------------------------------------
Pair    | 40.268     | 40.378     | 40.565     |   1.9 | 28.54
Bond    | 7.1531     | 7.2016     | 7.2598     |   1.6 |  5.09
Neigh   | 35.728     | 35.795     | 35.925     |   1.3 | 25.30
Comm    | 22.018     | 22.31      | 22.588     |   4.5 | 15.77
Output  | 0.015396   | 0.015917   | 0.017044   |   0.5 |  0.01
Modify  | 31.47      | 31.73      | 31.96      |   3.5 | 22.43
Other   |            | 4.055      |            |       |  2.87

Nlocal:          64000 ave       64031 max       63977 min
Histogram: 1 0 0 2 0 0 0 0 0 1
Nghost:        15574.5 ave       15593 max       15555 min
Histogram: 1 1 0 0 0 0 0 0 1 1
Neighs:         374662 ave      375038 max      374439 min
Histogram: 1 1 1 0 0 0 0 0 0 1

Total # of neighbors = 1498646
Ave neighs/atom = 5.8540859
Ave special neighs/atom = 1.98
Neighbor list builds = 2572
Dangerous builds = 0
Total wall time: 0:02:21
Intel(R) VTune(TM) Profiler 2022.2.0 collection completed successfully. Use the "aps --report /home/ubuntu/lammps/bench/aps_result_20220703" command to generate textual and HTML reports for the profiling session.
