LAMMPS (7 Jan 2022)
  using 1 OpenMP thread(s) per MPI task
Reading data file ...
  orthogonal box = (0 0 0) to (40 20 37.2886)
  4 by 2 by 2 MPI processor grid
  reading atoms ...
  32000 atoms
  reading velocities ...
  32000 velocities
  read_data CPU = 0.100 seconds
Replicating atoms ...
  orthogonal box = (0 0 0) to (120 60 37.292229)
  4 by 2 by 2 MPI processor grid
  288000 atoms
  replicate CPU = 0.023 seconds
8208 atoms in group bottom
279792 atoms in group active
  generated 0 of 1 mixed pair_coeff terms from geometric mixing rule
Neighbor list info ...
  update every 1 steps, delay 0 steps, check yes
  max neighbors/atom: 2000, page size: 100000
  master list distance cutoff = 1.1
  ghost atom cutoff = 1.1
  binsize = 0.55, bins = 219 110 68
  1 neighbor lists, perpetual/occasional/extra = 1 0 0
  (1) pair gran/hooke/history, perpetual
      attributes: half, newton off, size, history
      pair build: half/size/bin/newtoff
      stencil: full/bin/3d
      bin: standard
Setting up Verlet run ...
  Unit style    : lj
  Current step  : 0
  Time step     : 0.0001
Per MPI rank memory allocation (min/avg/max) = 15.6 | 15.6 | 15.6 Mbytes
Step Atoms KinEng c_1 Volume 
       0   288000    7057252.2    14410.137    268504.05 
     100   288000    7058628.7    14139.871    268512.37 
     200   288000    7059804.4    14164.771    268526.08 
     300   288000    7061071.3    14224.268    268539.55 
     400   288000    7062373.5    14150.143    268552.35 
     500   288000    7063485.9    14076.431    268566.25 
     600   288000    7064742.3     14080.06    268580.09 
     700   288000    7066157.4    13972.136    268593.26 
     800   288000    7067612.3    13996.988    268605.75 
     900   288000    7069146.1    13912.936    268617.57 
    1000   288000    7070149.9    13858.805    268628.72 
    1100   288000    7071323.1    13804.216    268639.19 
    1200   288000    7072398.5    13913.402    268648.99 
    1300   288000    7073366.7    13949.418    268658.12 
    1400   288000    7074104.1    13975.379    268666.58 
    1500   288000    7074971.5    14095.327    268674.36 
    1600   288000    7075717.8    14160.004    268681.46 
    1700   288000    7076419.2    14335.129     268687.9 
    1800   288000    7076924.5    14454.308    268691.81 
    1900   288000      7077383    14528.877    268697.13 
    2000   288000    7077900.2    14569.613    268701.76 
    2100   288000    7078385.6    14730.124    268705.73 
    2200   288000      7078974    14766.173    268709.02 
    2300   288000    7079530.6    14751.542    268711.64 
    2400   288000    7080208.1    14702.584    268713.59 
    2500   288000    7080752.2    14691.225    268714.86 
    2600   288000    7081159.6     14754.35    268715.46 
    2700   288000    7081505.6    14844.312    268715.87 
    2800   288000    7081708.7    14862.944    268717.37 
    2900   288000      7081972    14887.929    268718.19 
    3000   288000    7082086.4    14913.543    268718.34 
    3100   288000    7082375.1      14998.9    268717.82 
    3200   288000    7082696.6    15084.904    268716.63 
    3300   288000    7083319.1    15059.441    268714.76 
    3400   288000    7083951.3     15009.61    268712.25 
    3500   288000    7084612.2    14984.508    268709.14 
    3600   288000    7085232.5    14962.661     268705.4 
    3700   288000    7085800.9     14925.28    268701.03 
    3800   288000    7086278.9    14929.527    268695.86 
    3900   288000    7086714.4    14951.643    268690.02 
    4000   288000    7087131.1    14912.271    268692.68 
    4100   288000    7087398.2    14927.651     268696.2 
    4200   288000    7087583.4    14908.657    268699.05 
    4300   288000    7087717.2    14896.671    268701.23 
    4400   288000    7087765.9    14954.614    268702.73 
    4500   288000    7087813.9    15000.561    268703.56 
    4600   288000    7087918.5    15070.376    268703.72 
    4700   288000    7088017.6    15124.995     268703.2 
    4800   288000    7088185.3    15132.544    268702.01 
    4900   288000    7088378.4      15190.7    268700.15 
    5000   288000    7088611.1    15262.246    268697.61 
    5100   288000      7088831    15348.944    268694.41 
    5200   288000    7089129.5    15422.851    268690.52 
    5300   288000    7089484.8    15469.232    268685.97 
    5400   288000    7089911.6    15561.007    268680.85 
    5500   288000    7090397.7    15582.305    268675.08 
    5600   288000    7090872.4    15587.534    268668.53 
    5700   288000    7091335.4    15565.868    268661.31 
    5800   288000    7091793.9    15577.027    268653.49 
    5900   288000    7092266.9    15579.713    268645.19 
    6000   288000    7092833.4    15560.869    268640.03 
    6100   288000    7093413.1    15571.595    268636.62 
    6200   288000    7094046.7    15556.644    268632.57 
    6300   288000    7094721.5    15488.892    268627.89 
    6400   288000    7095374.4    15404.015    268622.58 
    6500   288000    7096046.1    15370.401    268616.63 
    6600   288000    7096796.3    15289.078    268610.04 
    6700   288000    7097618.2    15209.433    268602.83 
    6800   288000    7098448.1    15155.768    268594.98 
    6900   288000    7099288.5    15105.727    268586.22 
    7000   288000    7100158.3     15033.26     268576.8 
    7100   288000    7100971.3    14964.043     268566.7 
    7200   288000    7101753.4    14928.253    268555.92 
    7300   288000    7102484.5    14895.862    268544.48 
    7400   288000    7103167.2    14874.841    268536.47 
    7500   288000    7103845.9    14844.707     268523.9 
    7600   288000    7104483.3    14822.326    268510.93 
    7700   288000    7105107.1    14810.359    268502.38 
    7800   288000    7105659.1    14788.995    268493.15 
    7900   288000    7106119.3    14786.414    268483.26 
    8000   288000    7106505.4    14828.157     268472.9 
    8100   288000    7106823.4    14847.196    268462.01 
    8200   288000    7107199.8    14850.237       268451 
    8300   288000    7107572.6    14859.502    268442.31 
    8400   288000    7107899.6    14883.835    268434.09 
    8500   288000    7108194.5    14921.733    268427.46 
    8600   288000    7108404.8    14957.906    268420.19 
    8700   288000    7108509.5    14991.174     268412.3 
    8800   288000    7108491.6    15060.292    268405.45 
    8900   288000    7108442.1    15099.632     268398.1 
    9000   288000    7108303.8     15167.52    268396.82 
    9100   288000    7108105.6    15215.935    268397.77 
    9200   288000    7107830.7    15297.386    268398.09 
    9300   288000    7107523.1    15323.973    268397.77 
    9400   288000    7107182.3    15372.723    268396.82 
    9500   288000    7106878.7    15415.584    268395.23 
    9600   288000    7106593.3    15430.071    268393.01 
    9700   288000      7106302    15496.944    268390.16 
    9800   288000    7106052.6    15529.374    268386.67 
    9900   288000    7105908.9    15565.295    268382.54 
   10000   288000      7105835    15554.294    268377.79 
Loop time of 19.6249 on 16 procs for 10000 steps with 288000 atoms

Performance: 4402.562 tau/day, 509.556 timesteps/s
99.4% CPU use with 16 MPI tasks x 1 OpenMP threads

MPI task timing breakdown:
Section |  min time  |  avg time  |  max time  |%varavg| %total
---------------------------------------------------------------
Pair    | 8.6221     | 9.485      | 10.385     |  24.1 | 48.33
Neigh   | 2.9344     | 2.966      | 2.9961     |   1.1 | 15.11
Comm    | 1.3933     | 1.5175     | 1.6561     |   7.1 |  7.73
Output  | 0.013133   | 0.022397   | 0.030388   |   4.2 |  0.11
Modify  | 3.3629     | 3.4935     | 3.6204     |   4.6 | 17.80
Other   |            | 2.141      |            |       | 10.91

Nlocal:          18000 ave       18079 max       17919 min
Histogram: 3 1 1 2 1 1 2 1 0 4
Nghost:         3976.5 ave        4032 max        3940 min
Histogram: 4 0 3 4 1 0 1 0 1 2
Neighs:        65382.5 ave       66957 max       63703 min
Histogram: 3 5 0 0 0 0 0 0 1 7

Total # of neighbors = 1046120
Ave neighs/atom = 3.6323611
Neighbor list builds = 297
Dangerous builds = 0
Total wall time: 0:00:19
Intel(R) VTune(TM) Profiler 2022.2.0 collection completed successfully. Use the "aps --report /home/ubuntu/lammps/bench/aps_result_20220703" command to generate textual and HTML reports for the profiling session.
