LAMMPS (7 Jan 2022)
  using 1 OpenMP thread(s) per MPI task
Reading data file ...
  orthogonal box = (0 0 0) to (40 20 37.2886)
  4 by 2 by 2 MPI processor grid
  reading atoms ...
  32000 atoms
  reading velocities ...
  32000 velocities
  read_data CPU = 0.192 seconds
912 atoms in group bottom
31088 atoms in group active
  generated 0 of 1 mixed pair_coeff terms from geometric mixing rule
Neighbor list info ...
  update every 1 steps, delay 0 steps, check yes
  max neighbors/atom: 2000, page size: 100000
  master list distance cutoff = 1.1
  ghost atom cutoff = 1.1
  binsize = 0.55, bins = 73 37 68
  1 neighbor lists, perpetual/occasional/extra = 1 0 0
  (1) pair gran/hooke/history, perpetual
      attributes: half, newton off, size, history
      pair build: half/size/bin/newtoff
      stencil: full/bin/3d
      bin: standard
Setting up Verlet run ...
  Unit style    : lj
  Current step  : 0
  Time step     : 0.0001
Per MPI rank memory allocation (min/avg/max) = 10.17 | 10.17 | 10.18 Mbytes
Step Atoms KinEng c_1 Volume 
       0    32000    784139.13    1601.1263    29833.783 
     100    32000    784292.08    1571.0968    29834.707 
Loop time of 0.0935118 on 16 procs for 100 steps with 32000 atoms

Performance: 9239.472 tau/day, 1069.383 timesteps/s
86.2% CPU use with 16 MPI tasks x 1 OpenMP threads

MPI task timing breakdown:
Section |  min time  |  avg time  |  max time  |%varavg| %total
---------------------------------------------------------------
Pair    | 0.007838   | 0.010209   | 0.023908   |   3.6 | 10.92
Neigh   | 0.0021723  | 0.0037071  | 0.018171   |   6.1 |  3.96
Comm    | 0.0046144  | 0.027115   | 0.032278   |   5.1 | 29.00
Output  | 2.215e-05  | 3.9298e-05 | 6.4487e-05 |   0.0 |  0.04
Modify  | 0.0031173  | 0.0039026  | 0.0040553  |   0.5 |  4.17
Other   |            | 0.04854    |            |       | 51.91

Nlocal:           2000 ave        2005 max        1997 min
Histogram: 4 0 8 0 0 0 0 0 0 4
Nghost:        1152.25 ave        1160 max        1146 min
Histogram: 8 0 0 0 0 0 0 4 0 4
Neighs:        7707.75 ave        7990 max        7415 min
Histogram: 8 0 0 0 0 0 0 0 0 8

Total # of neighbors = 123324
Ave neighs/atom = 3.853875
Neighbor list builds = 2
Dangerous builds = 0
Total wall time: 0:00:00
Intel(R) VTune(TM) Profiler 2022.2.0 collection completed successfully. Use the "aps --report /home/ubuntu/lammps/bench/aps_result_20220531" command to generate textual and HTML reports for the profiling session.
