LAMMPS (7 Jan 2022)
  using 1 OpenMP thread(s) per MPI task
Reading data file ...
  orthogonal box = (-16.796 -16.796 -16.796) to (16.796 16.796 16.796)
  1 by 2 by 2 MPI processor grid
  reading atoms ...
  32000 atoms
  reading velocities ...
  32000 velocities
  scanning bonds ...
  1 = max bonds/atom
  reading bonds ...
  31680 bonds
Finding 1-2 1-3 1-4 neighbors ...
  special bond factors lj:    0        1        1       
  special bond factors coul:  0        1        1       
     2 = max # of 1-2 neighbors
     2 = max # of special neighbors
  special bonds CPU = 0.002 seconds
  read_data CPU = 0.112 seconds
Replicating atoms ...
  orthogonal box = (-16.796 -16.796 -16.796) to (83.98 83.98 83.98)
  2 by 1 by 2 MPI processor grid
  864000 atoms
  855360 bonds
Finding 1-2 1-3 1-4 neighbors ...
  special bond factors lj:    0        1        1       
  special bond factors coul:  0        1        1       
     2 = max # of 1-2 neighbors
     2 = max # of special neighbors
  special bonds CPU = 0.056 seconds
  replicate CPU = 0.104 seconds
----------------------------------------------------------
Using INTEL Package without Coprocessor.
Compiler: Intel Classic C++ 20.21.5 / Intel(R) C++ g++ 9.3 mode
SIMD compiler directives: Enabled
Precision: double
----------------------------------------------------------
  generated 0 of 0 mixed pair_coeff terms from geometric mixing rule
Neighbor list info ...
  update every 1 steps, delay 1 steps, check yes
  max neighbors/atom: 2000, page size: 100000
  master list distance cutoff = 1.52
  ghost atom cutoff = 1.52
  binsize = 0.76, bins = 133 133 133
  1 neighbor lists, perpetual/occasional/extra = 1 0 0
  (1) pair lj/cut/intel, perpetual
      attributes: half, newton on, intel
      pair build: half/bin/newton/intel
      stencil: half/bin/3d
      bin: intel
Setting up Verlet run ...
  Unit style    : lj
  Current step  : 0
  Time step     : 0.012
WARNING: Communication cutoff 1.52 is shorter than a bond length based estimate of 1.855. This may lead to errors. (../comm.cpp:723)
Per MPI rank memory allocation (min/avg/max) = 1908 | 1909 | 1910 Mbytes
Step Temp E_pair E_mol TotEng Press 
       0   0.97026852   0.44484087    20.494523    22.394765    4.6721833 
     100   0.97267972   0.44252672    20.502203    22.403747     4.687784 
Loop time of 5.29929 on 4 procs for 100 steps with 864000 atoms

Performance: 19564.898 tau/day, 18.870 timesteps/s
99.1% CPU use with 4 MPI tasks x 1 OpenMP threads

MPI task timing breakdown:
Section |  min time  |  avg time  |  max time  |%varavg| %total
---------------------------------------------------------------
Pair    | 1.0718     | 1.0792     | 1.093      |   0.8 | 20.37
Bond    | 0.31954    | 0.32298    | 0.32817    |   0.6 |  6.09
Neigh   | 1.3168     | 1.3179     | 1.3188     |   0.1 | 24.87
Comm    | 1.1179     | 1.1403     | 1.1556     |   1.3 | 21.52
Output  | 0.00050317 | 0.00055715 | 0.00061675 |   0.0 |  0.01
Modify  | 1.2154     | 1.2321     | 1.2613     |   1.6 | 23.25
Other   |            | 0.2062     |            |       |  3.89

Nlocal:         216000 ave      216268 max      215784 min
Histogram: 2 0 0 0 0 0 0 1 0 1
Nghost:        34167.8 ave       34186 max       34147 min
Histogram: 1 0 0 1 0 0 0 1 0 1
Neighs:    1.26531e+06 ave 1.26858e+06 max 1.26253e+06 min
Histogram: 2 0 0 0 0 0 0 1 0 1

Total # of neighbors = 5061249
Ave neighs/atom = 5.8579271
Ave special neighs/atom = 1.98
Neighbor list builds = 25
Dangerous builds = 0
Total wall time: 0:00:05
Intel(R) VTune(TM) Profiler 2022.2.0 collection completed successfully. Use the "aps --report /home/ubuntu/lammps/bench/aps_result_20220601" command to generate textual and HTML reports for the profiling session.
