LAMMPS (7 Jan 2022)
  using 1 OpenMP thread(s) per MPI task
Reading data file ...
  orthogonal box = (0 0 0) to (40 20 37.2886)
  4 by 2 by 4 MPI processor grid
  reading atoms ...
  32000 atoms
  reading velocities ...
  32000 velocities
  read_data CPU = 0.090 seconds
Replicating atoms ...
  orthogonal box = (0 0 0) to (120 60 37.292229)
  4 by 4 by 2 MPI processor grid
  288000 atoms
  replicate CPU = 0.020 seconds
8208 atoms in group bottom
279792 atoms in group active
  generated 0 of 1 mixed pair_coeff terms from geometric mixing rule
Neighbor list info ...
  update every 1 steps, delay 0 steps, check yes
  max neighbors/atom: 2000, page size: 100000
  master list distance cutoff = 1.1
  ghost atom cutoff = 1.1
  binsize = 0.55, bins = 219 110 68
  1 neighbor lists, perpetual/occasional/extra = 1 0 0
  (1) pair gran/hooke/history, perpetual
      attributes: half, newton off, size, history
      pair build: half/size/bin/newtoff
      stencil: full/bin/3d
      bin: standard
Setting up Verlet run ...
  Unit style    : lj
  Current step  : 0
  Time step     : 0.0001
Per MPI rank memory allocation (min/avg/max) = 10.76 | 10.76 | 10.76 Mbytes
Step Atoms KinEng c_1 Volume 
       0   288000    7057252.2    14410.137    268504.05 
     100   288000    7058628.7    14139.871    268512.37 
Loop time of 0.102238 on 32 procs for 100 steps with 288000 atoms

Performance: 8450.867 tau/day, 978.110 timesteps/s
98.5% CPU use with 32 MPI tasks x 1 OpenMP threads

MPI task timing breakdown:
Section |  min time  |  avg time  |  max time  |%varavg| %total
---------------------------------------------------------------
Pair    | 0.036566   | 0.047348   | 0.051913   |   2.1 | 46.31
Neigh   | 0.0095875  | 0.011884   | 0.01232    |   0.6 | 11.62
Comm    | 0.010639   | 0.011498   | 0.01217    |   0.4 | 11.25
Output  | 5.9134e-05 | 0.00013276 | 0.00026585 |   0.0 |  0.13
Modify  | 0.015025   | 0.01855    | 0.019841   |   0.8 | 18.14
Other   |            | 0.01282    |            |       | 12.54

Nlocal:           9000 ave        9026 max        8985 min
Histogram: 8 0 8 8 0 0 4 0 0 4
Nghost:        2737.75 ave        2775 max        2702 min
Histogram: 4 4 0 8 0 4 0 8 0 4
Neighs:          33193 ave       34356 max       32019 min
Histogram: 16 0 0 0 0 0 0 0 0 16

Total # of neighbors = 1062176
Ave neighs/atom = 3.6881111
Neighbor list builds = 2
Dangerous builds = 0
Total wall time: 0:00:00
Intel(R) VTune(TM) Profiler 2022.2.0 collection completed successfully. Use the "aps --report /home/ubuntu/lammps/bench/aps_result_20220601" command to generate textual and HTML reports for the profiling session.
