LAMMPS (7 Jan 2022)
  using 1 OpenMP thread(s) per MPI task
Reading data file ...
  orthogonal box = (0 0 0) to (40 20 37.2886)
  4 by 4 by 4 MPI processor grid
  reading atoms ...
  32000 atoms
  reading velocities ...
  32000 velocities
  read_data CPU = 0.089 seconds
Replicating atoms ...
  orthogonal box = (0 0 0) to (120 60 37.292229)
  8 by 4 by 2 MPI processor grid
  288000 atoms
  replicate CPU = 0.019 seconds
8208 atoms in group bottom
279792 atoms in group active
  generated 0 of 1 mixed pair_coeff terms from geometric mixing rule
Neighbor list info ...
  update every 1 steps, delay 0 steps, check yes
  max neighbors/atom: 2000, page size: 100000
  master list distance cutoff = 1.1
  ghost atom cutoff = 1.1
  binsize = 0.55, bins = 219 110 68
  1 neighbor lists, perpetual/occasional/extra = 1 0 0
  (1) pair gran/hooke/history, perpetual
      attributes: half, newton off, size, history
      pair build: half/size/bin/newtoff
      stencil: full/bin/3d
      bin: standard
Setting up Verlet run ...
  Unit style    : lj
  Current step  : 0
  Time step     : 0.0001
Per MPI rank memory allocation (min/avg/max) = 10.37 | 10.37 | 10.37 Mbytes
Step Atoms KinEng c_1 Volume 
       0   288000    7057252.2    14410.137    268504.05 
     100   288000    7058628.7    14139.871    268512.37 
     200   288000    7059804.4    14164.771    268526.08 
     300   288000    7061071.3    14224.268    268539.55 
     400   288000    7062373.5    14150.143    268552.35 
     500   288000    7063485.9    14076.431    268566.25 
     600   288000    7064742.3     14080.06    268580.09 
     700   288000    7066157.4    13972.136    268593.26 
     800   288000    7067612.3    13996.988    268605.75 
     900   288000    7069146.1    13912.936    268617.57 
    1000   288000    7070149.9    13858.805    268628.72 
    1100   288000    7071323.1    13804.216    268639.19 
    1200   288000    7072398.5    13913.402    268648.99 
    1300   288000    7073366.7    13949.418    268658.12 
    1400   288000    7074104.1    13975.379    268666.58 
    1500   288000    7074971.5    14095.327    268674.36 
    1600   288000    7075717.8    14160.004    268681.46 
    1700   288000    7076419.2    14335.129     268687.9 
    1800   288000    7076924.5    14454.308    268691.81 
    1900   288000      7077383    14528.876    268697.13 
    2000   288000    7077900.2    14569.619    268701.76 
    2100   288000    7078385.6    14730.118    268705.73 
    2200   288000      7078974    14766.179    268709.02 
    2300   288000    7079530.7    14751.549    268711.64 
    2400   288000    7080208.2    14702.643    268713.59 
    2500   288000    7080752.2    14691.178    268714.86 
    2600   288000      7081160     14754.28    268715.46 
    2700   288000      7081506    14844.045    268715.87 
    2800   288000    7081710.6    14862.305    268717.37 
    2900   288000    7081973.4    14887.309    268718.19 
    3000   288000    7082087.4    14912.459    268718.34 
    3100   288000    7082375.9    14994.532    268717.82 
    3200   288000      7082691    15086.877    268716.63 
    3300   288000    7083313.5    15062.608    268714.76 
    3400   288000    7083949.6    15015.995    268712.25 
    3500   288000    7084623.5    14988.632    268709.14 
    3600   288000      7085222    14968.798     268705.4 
    3700   288000    7085814.8    14925.041    268701.03 
    3800   288000    7086261.8    14932.287    268695.92 
    3900   288000    7086706.7     14974.65    268690.08 
    4000   288000    7087122.1     14952.84     268692.3 
    4100   288000    7087432.6    14916.727    268695.72 
    4200   288000    7087625.7    14920.159    268698.47 
    4300   288000    7087783.1    14880.499    268700.54 
    4400   288000      7087903    14879.276    268701.94 
    4500   288000    7087948.9    14971.341    268702.67 
    4600   288000    7088026.8    15031.104    268702.73 
    4700   288000    7088173.8    15107.062    268702.11 
    4800   288000    7088285.7    15140.499    268700.82 
    4900   288000    7088417.2    15239.735    268698.85 
    5000   288000    7088619.8    15330.702    268696.21 
    5100   288000      7088912    15363.136     268692.9 
    5200   288000    7089206.6    15404.128    268688.92 
    5300   288000      7089518    15483.139    268684.26 
    5400   288000    7089922.5    15559.592    268679.04 
    5500   288000    7090439.4    15581.404    268673.23 
    5600   288000    7091006.5     15560.69    268666.65 
    5700   288000    7091601.8    15532.947    268659.34 
    5800   288000    7092138.6    15543.676    268651.44 
    5900   288000    7092744.9    15461.604     268648.1 
    6000   288000      7093338    15425.169    268644.83 
    6100   288000    7093953.8    15432.248    268640.92 
    6200   288000    7094547.8    15390.478    268636.38 
    6300   288000    7095168.6    15368.546    268631.21 
    6400   288000    7095799.9    15355.451     268625.4 
    6500   288000    7096536.5    15319.561    268618.96 
    6600   288000    7097312.8    15246.812    268611.88 
    6700   288000    7098173.1    15194.271    268604.17 
    6800   288000    7099025.4    15124.744    268595.82 
    6900   288000    7099893.7    15066.402    268586.65 
    7000   288000    7100715.8    15033.048    268581.59 
    7100   288000      7101507    15002.619    268576.89 
    7200   288000    7102291.6    14992.323    268571.55 
    7300   288000    7103038.5    14941.645    268565.58 
    7400   288000    7103786.1      14887.1    268558.97 
    7500   288000    7104486.9      14870.8    268551.73 
    7600   288000    7105185.3    14848.624    268543.86 
    7700   288000      7105792    14853.763    268535.35 
    7800   288000    7106321.3    14860.891    268526.21 
    7900   288000    7106856.3    14862.336    268516.43 
    8000   288000    7107347.8     14863.09    268506.79 
    8100   288000    7107753.2    14902.547    268497.46 
    8200   288000    7108123.7    14940.062    268487.49 
    8300   288000    7108506.3    14943.381    268476.89 
    8400   288000    7108797.4    14961.138    268465.66 
    8500   288000    7109012.4    15000.355     268453.8 
    8600   288000    7109231.1    15064.068    268441.29 
    8700   288000      7109398     15104.22    268428.16 
    8800   288000    7109514.3    15132.064    268414.39 
    8900   288000    7109546.9    15170.509    268404.35 
    9000   288000    7109537.2    15195.742    268396.58 
    9100   288000    7109486.1    15259.981    268388.19 
    9200   288000    7109376.3    15280.506       268376 
    9300   288000    7109200.2    15336.714     268368.3 
    9400   288000    7108997.4    15391.123    268365.27 
    9500   288000    7108841.7    15431.044    268361.61 
    9600   288000    7108649.5     15439.28    268357.31 
    9700   288000    7108501.2    15437.288    268352.74 
    9800   288000    7108376.3    15492.474    268357.17 
    9900   288000    7108287.8    15481.299    268361.27 
   10000   288000    7108289.3    15476.457    268364.73 
Loop time of 5.76974 on 64 procs for 10000 steps with 288000 atoms

Performance: 14974.683 tau/day, 1733.181 timesteps/s
99.4% CPU use with 64 MPI tasks x 1 OpenMP threads

MPI task timing breakdown:
Section |  min time  |  avg time  |  max time  |%varavg| %total
---------------------------------------------------------------
Pair    | 1.9639     | 2.3942     | 2.8847     |  19.7 | 41.50
Neigh   | 0.81154    | 0.87105    | 0.93509    |   4.4 | 15.10
Comm    | 0.64311    | 0.70549    | 0.76676    |   3.6 | 12.23
Output  | 0.0051106  | 0.010188   | 0.01541    |   3.0 |  0.18
Modify  | 0.8077     | 0.86898    | 0.92782    |   4.4 | 15.06
Other   |            | 0.9198     |            |       | 15.94

Nlocal:           4500 ave        4534 max        4463 min
Histogram: 4 8 5 3 9 6 12 4 8 5
Nghost:        1770.19 ave        1812 max        1740 min
Histogram: 4 4 8 14 16 6 7 2 1 2
Neighs:        16847.8 ave       17404 max       16371 min
Histogram: 9 19 4 0 0 0 6 9 12 5

Total # of neighbors = 1078256
Ave neighs/atom = 3.7439444
Neighbor list builds = 298
Dangerous builds = 0
Total wall time: 0:00:05
Intel(R) VTune(TM) Profiler 2022.2.0 collection completed successfully. Use the "aps --report /home/ubuntu/lammps/bench/aps_result_20220703" command to generate textual and HTML reports for the profiling session.
