LAMMPS (7 Jan 2022)
  using 1 OpenMP thread(s) per MPI task
Reading data file ...
  orthogonal box = (-16.796 -16.796 -16.796) to (16.796 16.796 16.796)
  4 by 4 by 4 MPI processor grid
  reading atoms ...
  32000 atoms
  reading velocities ...
  32000 velocities
  scanning bonds ...
  1 = max bonds/atom
  reading bonds ...
  31680 bonds
Finding 1-2 1-3 1-4 neighbors ...
  special bond factors lj:    0        1        1       
  special bond factors coul:  0        1        1       
     2 = max # of 1-2 neighbors
     2 = max # of special neighbors
  special bonds CPU = 0.009 seconds
  read_data CPU = 0.114 seconds
Replicating atoms ...
  orthogonal box = (-16.796 -16.796 -16.796) to (50.388 50.388 50.388)
  4 by 4 by 4 MPI processor grid
  256000 atoms
  253440 bonds
Finding 1-2 1-3 1-4 neighbors ...
  special bond factors lj:    0        1        1       
  special bond factors coul:  0        1        1       
     2 = max # of 1-2 neighbors
     2 = max # of special neighbors
  special bonds CPU = 0.010 seconds
  replicate CPU = 0.020 seconds
----------------------------------------------------------
Using INTEL Package without Coprocessor.
Compiler: Intel Classic C++ 20.21.5 / Intel(R) C++ g++ 9.3 mode
SIMD compiler directives: Enabled
Precision: mixed
----------------------------------------------------------
  generated 0 of 0 mixed pair_coeff terms from geometric mixing rule
Neighbor list info ...
  update every 1 steps, delay 1 steps, check yes
  max neighbors/atom: 2000, page size: 100000
  master list distance cutoff = 1.52
  ghost atom cutoff = 1.52
  binsize = 0.76, bins = 89 89 89
  1 neighbor lists, perpetual/occasional/extra = 1 0 0
  (1) pair lj/cut/intel, perpetual
      attributes: half, newton on, intel
      pair build: half/bin/newton/intel
      stencil: half/bin/3d
      bin: intel
Setting up Verlet run ...
  Unit style    : lj
  Current step  : 0
  Time step     : 0.012
WARNING: Communication cutoff 1.52 is shorter than a bond length based estimate of 1.855. This may lead to errors. (../comm.cpp:723)
Per MPI rank memory allocation (min/avg/max) = 38.66 | 38.85 | 38.94 Mbytes
Step Temp E_pair E_mol TotEng Press 
       0   0.97027119   0.44484088    20.494523    22.394765    4.6721834 
     100   0.97542342   0.43984897    20.499467    22.402445    4.6751293 
     200   0.97623761   0.44588268    20.501636    22.411869      4.70486 
     300   0.98089078   0.44432569    20.505922    22.421578    4.7201359 
     400   0.98214421   0.44761512    20.506964     22.42779    4.7526954 
     500   0.98534886   0.44656216    20.509348    22.433927    4.7392224 
     600   0.98680596   0.44684899    20.509024    22.436076    4.7296425 
     700   0.98876862   0.44699707    20.509445    22.439589    4.7431759 
     800   0.98943283   0.45057053    20.508927    22.443641    4.7326855 
     900   0.99079693   0.44951447    20.511594    22.447298    4.7674542 
    1000   0.99175044   0.45220641    20.510136    22.449962    4.7748581 
    1100   0.99182675   0.45239253    20.512323     22.45245    4.7733934 
    1200    0.9956902   0.44984975    20.513398    22.456777    4.7857158 
    1300   0.99431512   0.45041122      20.5136    22.455478    4.8036438 
    1400   0.99310486   0.45296071    20.512973    22.455585    4.7938372 
    1500   0.99589599   0.45185231    20.512019     22.45771    4.7525409 
    1600   0.99624648    0.4522546    20.513757    22.460376    4.8026779 
    1700   0.99681236   0.45171986    20.515524    22.462457    4.7708436 
    1800   0.99695277   0.45256009    20.516854    22.464838    4.8022169 
    1900   0.99897886   0.45210185    20.515481    22.466045    4.7795203 
    2000   0.99938712   0.45463485    20.514811    22.468521    4.8077106 
    2100    1.0007742   0.45370491    20.516986    22.471847     4.796425 
    2200    1.0006835   0.45370131    20.515543    22.470264    4.7730392 
    2300    1.0006884   0.45246734    20.516886     22.47038    4.7956853 
    2400    1.0016616   0.45561536    20.515591    22.473692    4.8054014 
    2500    1.0031528   0.45343411    20.514943    22.473101      4.77791 
    2600    1.0006203   0.45401373    20.516907    22.471845     4.770773 
    2700    1.0010979   0.45251658    20.517222    22.471379    4.7699086 
    2800    1.0003856   0.45187942    20.517228     22.46968    4.7928944 
    2900    1.0001477   0.45394959    20.516183    22.470349    4.8015532 
    3000   0.99885638   0.45367721    20.515268    22.467224    4.8086582 
    3100     1.000161   0.45428023    20.512731    22.467246    4.7994843 
    3200    1.0002126   0.45447906       20.516    22.470792    4.7956681 
    3300    1.0019105   0.45289914    20.514994    22.470753    4.8195316 
    3400   0.99869754   0.45342089    20.517562    22.469023    4.8053849 
    3500    1.0006616   0.45359616    20.515795    22.470378    4.7672649 
    3600    1.0013522   0.45380075    20.514779    22.470603    4.8081386 
    3700    1.0007314    0.4550283    20.515849    22.471968     4.818165 
    3800   0.99974424   0.45593856    20.516729    22.472278    4.7907674 
    3900    1.0013488   0.45437897    20.516096    22.472492    4.7933592 
    4000    0.9996789   0.45513395    20.517496    22.472142    4.7991264 
    4100     1.002372   0.45300677    20.516357    22.472916    4.7579713 
    4200    1.0038529   0.45323924    20.515612    22.474625    4.7607351 
    4300    1.0014103   0.45654927    20.516938    22.475597    4.8159284 
    4400    1.0030881   0.45366691    20.518398    22.476691    4.8039646 
    4500    1.0024873   0.45505515    20.517614    22.476394    4.7967006 
    4600    1.0049106   0.45234697    20.517254    22.476961    4.7924204 
    4700    1.0019313    0.4557745    20.518786    22.477451    4.8215104 
    4800    1.0041398   0.45346989    20.515468    22.475141    4.7956424 
    4900    1.0022804   0.45686116    20.516548    22.476824    4.8032927 
    5000    1.0028775   0.45595832    20.518125    22.478394    4.7811089 
    5100    1.0026173   0.45583795    20.517679    22.477437    4.7934542 
    5200     1.002904   0.45530191     20.51831    22.477962    4.7992225 
    5300    1.0025414   0.45398892    20.518133    22.475928    4.7891289 
    5400    1.0030264   0.45442369    20.515152     22.47411    4.8198623 
    5500    1.0028817   0.45383914    20.515398    22.473554    4.7875097 
    5600    1.0002589   0.45530692    20.517859    22.473549    4.7949311 
    5700    1.0012392   0.45440916    20.517529    22.473791    4.7955535 
    5800    1.0017361   0.45441684    20.517301    22.474316    4.7673862 
    5900    1.0010168   0.45591411    20.517113    22.474547    4.7897419 
    6000    1.0034902   0.45353196    20.517568     22.47633    4.8163555 
    6100      1.00215   0.45554193    20.517708    22.476469    4.7985697 
    6200       1.0033   0.45451503    20.515891     22.47535    4.7884425 
    6300    1.0029219   0.45416917    20.518704     22.47725    4.7944034 
    6400    1.0027942   0.45499498    20.517813    22.476993    4.7957696 
    6500    1.0031938   0.45355203     20.51828    22.476617    4.7940248 
    6600    1.0026389   0.45626567    20.515064    22.475282    4.8132841 
    6700    1.0028252   0.45584429    20.515477    22.475553    4.8209113 
    6800    1.0014777   0.45627357    20.515742    22.474226    4.8178748 
    6900    1.0018689   0.45380974     20.51705    22.473657    4.7949855 
    7000    1.0028528   0.45490159    20.515075     22.47425    4.7998424 
    7100    1.0031228   0.45439151    20.516104    22.475174    4.8038737 
    7200    1.0021753   0.45304022    20.516592    22.472889    4.7770117 
    7300    1.0006349   0.45402192    20.517015    22.471983    4.7857295 
    7400    1.0024268   0.45376738    20.515059     22.47246    4.7774829 
    7500    1.0036047   0.45449735    20.512815    22.472714    4.8066832 
    7600    1.0014642   0.45564895     20.51505    22.472889    4.7768251 
    7700   0.99945378   0.45602511    20.516629    22.471829    4.7817195 
    7800    1.0032889    0.4522827     20.51396     22.47117     4.754505 
    7900    1.0012002   0.45337843    20.515028    22.470201     4.792343 
    8000   0.99954957   0.45360273    20.517868     22.47079     4.822742 
    8100    1.0007577   0.45342159    20.516042    22.470595    4.8100673 
    8200   0.99960599   0.45212786    20.519029     22.47056    4.8122591 
    8300    1.0011219    0.4533609    20.518104    22.473142    4.7848753 
    8400     1.002873   0.45630614     20.51344     22.47405    4.7723788 
    8500    1.0017551   0.45309188    20.515609    22.471327    4.7957335 
    8600    1.0006077   0.45430654    20.515522    22.470735    4.8135579 
    8700    1.0006007   0.45276858    20.515502    22.469166    4.7794151 
    8800   0.99865255   0.45446614    20.515415    22.467854    4.7997833 
    8900    0.9999533   0.45415688    20.514959     22.46904    4.7858214 
    9000   0.99869935   0.45433523    20.517769    22.470148    4.8017866 
    9100    1.0008308   0.45103373    20.516535    22.468809     4.779622 
    9200    1.0007669   0.45281598    20.513618    22.467578    4.8223349 
    9300   0.99993809   0.45351298    20.514846     22.46826    4.7894885 
    9400    1.0009327   0.45487494    20.512374    22.468642     4.787989 
    9500    1.0021977   0.45083653    20.514695    22.468822    4.7983217 
    9600    1.0013856    0.4526175    20.513694    22.468384    4.7658442 
    9700   0.99932881   0.45392542    20.516174    22.469087    4.7925342 
    9800    1.0008848   0.45439462    20.515086    22.470802     4.797988 
    9900    0.9997158    0.4558562    20.514271    22.469695    4.7944224 
   10000    1.0010272   0.45362011    20.514521    22.469676    4.7782992 
Loop time of 12.074 on 64 procs for 10000 steps with 256000 atoms

Performance: 858702.875 tau/day, 828.224 timesteps/s
98.1% CPU use with 64 MPI tasks x 1 OpenMP threads

MPI task timing breakdown:
Section |  min time  |  avg time  |  max time  |%varavg| %total
---------------------------------------------------------------
Pair    | 2.7044     | 2.8861     | 3.0518     |   5.4 | 23.90
Bond    | 0.4359     | 0.45872    | 0.48704    |   2.0 |  3.80
Neigh   | 2.931      | 2.9518     | 2.9743     |   0.6 | 24.45
Comm    | 2.6335     | 2.8151     | 3.0101     |   6.3 | 23.32
Output  | 0.0075435  | 0.0092116  | 0.01112    |   0.7 |  0.08
Modify  | 2.0511     | 2.1605     | 2.3374     |   4.1 | 17.89
Other   |            | 0.7926     |            |       |  6.56

Nlocal:           4000 ave        4046 max        3968 min
Histogram: 3 10 10 6 16 7 4 5 2 1
Nghost:        2590.89 ave        2623 max        2555 min
Histogram: 2 6 7 3 9 10 9 10 4 4
Neighs:        23414.4 ave       23847 max       23039 min
Histogram: 2 8 8 6 9 13 8 4 4 2

Total # of neighbors = 1498521
Ave neighs/atom = 5.8535977
Ave special neighs/atom = 1.98
Neighbor list builds = 2580
Dangerous builds = 0
Total wall time: 0:00:12
Intel(R) VTune(TM) Profiler 2022.2.0 collection completed successfully. Use the "aps --report /home/ubuntu/lammps/bench/aps_result_20220703" command to generate textual and HTML reports for the profiling session.
