LAMMPS (7 Jan 2022)
  using 1 OpenMP thread(s) per MPI task
Reading data file ...
  orthogonal box = (0 0 0) to (40 20 37.2886)
  4 by 2 by 4 MPI processor grid
  reading atoms ...
  32000 atoms
  reading velocities ...
  32000 velocities
  read_data CPU = 0.093 seconds
Replicating atoms ...
  orthogonal box = (0 0 0) to (160 80 37.292229)
  8 by 4 by 1 MPI processor grid
  512000 atoms
  replicate CPU = 0.026 seconds
14592 atoms in group bottom
497408 atoms in group active
  generated 0 of 1 mixed pair_coeff terms from geometric mixing rule
Neighbor list info ...
  update every 1 steps, delay 0 steps, check yes
  max neighbors/atom: 2000, page size: 100000
  master list distance cutoff = 1.1
  ghost atom cutoff = 1.1
  binsize = 0.55, bins = 291 146 68
  1 neighbor lists, perpetual/occasional/extra = 1 0 0
  (1) pair gran/hooke/history, perpetual
      attributes: half, newton off, size, history
      pair build: half/size/bin/newtoff
      stencil: full/bin/3d
      bin: standard
Setting up Verlet run ...
  Unit style    : lj
  Current step  : 0
  Time step     : 0.0001
Per MPI rank memory allocation (min/avg/max) = 15.37 | 15.37 | 15.37 Mbytes
Step Atoms KinEng c_1 Volume 
       0   512000     12546226    25618.021    477340.53 
     100   512000     12548673    25137.549    477355.32 
     200   512000     12550763    25181.814    477379.69 
     300   512000     12553016    25287.588    477403.64 
     400   512000     12555331     25155.81     477426.4 
     500   512000     12557308    25024.766    477451.12 
     600   512000     12559542    25031.218    477475.72 
     700   512000     12562058    24839.354    477499.13 
     800   512000     12564644    24883.534    477521.34 
     900   512000     12567371    24734.109    477542.35 
    1000   512000     12569155    24637.876    477562.17 
    1100   512000     12571241    24540.829    477580.79 
    1200   512000     12573153    24734.936    477598.21 
    1300   512000     12574874    24798.965    477614.44 
    1400   512000     12576185    24845.117    477629.47 
    1500   512000     12577727    25058.358     477643.3 
    1600   512000     12579054    25173.339    477655.94 
    1700   512000     12580301    25484.708    477667.37 
    1800   512000     12581199     25696.55    477674.33 
    1900   512000     12582014    25829.192    477683.78 
    2000   512000     12582934    25901.775    477692.02 
    2100   512000     12583797    26187.371    477699.07 
    2200   512000     12584843     26251.96    477704.93 
    2300   512000     12585833    26226.257    477709.58 
    2400   512000     12587039    26137.375    477713.04 
    2500   512000     12588005    26111.924     477715.3 
    2600   512000     12588723    26239.579    477716.37 
    2700   512000     12589361    26387.956     477717.1 
    2800   512000     12589721    26429.747    477719.76 
    2900   512000     12590191    26471.537    477721.23 
    3000   512000     12590455    26493.719     477721.5 
    3100   512000     12590910    26641.097    477720.57 
    3200   512000     12591514    26790.935    477718.45 
    3300   512000     12592585    26778.713    477715.13 
    3400   512000     12593723    26718.254    477710.66 
    3500   512000     12594923    26629.059    477705.14 
    3600   512000     12596076    26554.558    477698.49 
    3700   512000     12597011    26522.911    477690.72 
    3800   512000     12597809    26576.712    477681.53 
    3900   512000     12598514    26631.681    477671.15 
    4000   512000     12599218    26601.229    477672.82 
    4100   512000     12599723    26563.334    477677.76 
    4200   512000     12600070    26568.905     477681.5 
    4300   512000     12600357    26511.444    477684.05 
    4400   512000     12600518    26533.923    477685.41 
    4500   512000     12600581    26643.388    477685.56 
    4600   512000     12600760    26744.309    477684.52 
    4700   512000     12601050     26798.47    477682.28 
    4800   512000     12601348    26910.199    477679.61 
    4900   512000     12601689    27026.688    477675.95 
    5000   512000     12602198    27124.957    477671.09 
    5100   512000     12602729    27189.037    477665.04 
    5200   512000     12603349    27272.495     477657.8 
    5300   512000     12603976     27409.29    477649.35 
    5400   512000     12604708    27534.213    477639.91 
    5500   512000     12605502    27626.081    477629.47 
    5600   512000     12606433    27612.191    477627.28 
    5700   512000     12607411    27594.075    477626.96 
    5800   512000     12608392    27565.475    477628.85 
    5900   512000     12609375     27504.93    477629.62 
    6000   512000     12610360    27480.595    477629.26 
    6100   512000     12611423    27433.085    477627.77 
    6200   512000     12612563    27409.203    477625.16 
    6300   512000     12613752    27369.555    477621.41 
    6400   512000     12614920    27295.028    477616.54 
    6500   512000     12616251    27192.962    477610.55 
    6600   512000     12617658    27122.351    477603.42 
    6700   512000     12619119    27016.313    477595.17 
    6800   512000     12620636     26915.55    477585.79 
    6900   512000     12622157    26789.908    477575.28 
    7000   512000     12623557    26701.085     477563.4 
    7100   512000     12624788    26678.573    477559.79 
    7200   512000     12625922    26698.704    477556.38 
    7300   512000     12627027    26672.725    477551.77 
    7400   512000     12628079    26648.495    477545.97 
    7500   512000     12629083    26612.896    477538.96 
    7600   512000     12630031    26567.769    477530.93 
    7700   512000     12630921    26535.408    477521.85 
    7800   512000     12631710    26494.964    477511.64 
    7900   512000     12632375    26532.017    477500.31 
    8000   512000     12632968    26601.448    477487.84 
    8100   512000     12633518    26646.877    477474.25 
    8200   512000     12634014     26689.16    477459.53 
    8300   512000     12634482    26758.647    477443.69 
    8400   512000     12634920    26809.974    477426.71 
    8500   512000     12635307    26849.035    477408.61 
    8600   512000     12635597    26884.408    477389.38 
    8700   512000     12635803     26921.61    477369.03 
    8800   512000     12635898    26982.727    477347.54 
    8900   512000     12635874    27080.037    477324.93 
    9000   512000     12635763    27130.314    477301.67 
    9100   512000     12635457    27219.482    477306.73 
    9200   512000     12635017    27321.448    477310.66 
    9300   512000     12634437    27449.189    477313.47 
    9400   512000     12633901    27520.136    477315.15 
    9500   512000     12633315    27648.524     477315.7 
    9600   512000     12632799    27715.131    477315.12 
    9700   512000     12632304    27719.232    477313.42 
    9800   512000     12631816    27772.344    477310.58 
    9900   512000     12631395    27780.574    477306.62 
   10000   512000     12630948    27828.049    477301.54 
Loop time of 21.1087 on 32 procs for 10000 steps with 512000 atoms

Performance: 4093.100 tau/day, 473.738 timesteps/s
99.8% CPU use with 32 MPI tasks x 1 OpenMP threads

MPI task timing breakdown:
Section |  min time  |  avg time  |  max time  |%varavg| %total
---------------------------------------------------------------
Pair    | 9.9452     | 10.382     | 10.83      |   5.7 | 49.18
Neigh   | 2.6427     | 2.7248     | 2.7732     |   1.5 | 12.91
Comm    | 1.7812     | 1.8535     | 1.9846     |   4.5 |  8.78
Output  | 0.017769   | 0.02264    | 0.028897   |   1.7 |  0.11
Modify  | 3.679      | 4.0548     | 4.4256     |  10.4 | 19.21
Other   |            | 2.071      |            |       |  9.81

Nlocal:          16000 ave       16020 max       15985 min
Histogram: 5 3 2 3 6 3 4 2 2 2
Nghost:        3716.66 ave        3739 max        3697 min
Histogram: 2 1 9 5 1 3 3 3 3 2
Neighs:        58289.5 ave       58409 max       58121 min
Histogram: 1 1 1 2 5 4 8 7 2 1

Total # of neighbors = 1865265
Ave neighs/atom = 3.6430957
Neighbor list builds = 297
Dangerous builds = 0
Total wall time: 0:00:21
Intel(R) VTune(TM) Profiler 2022.2.0 collection completed successfully. Use the "aps --report /home/ubuntu/lammps/bench/aps_result_20220703" command to generate textual and HTML reports for the profiling session.
