LAMMPS (7 Jan 2022)
  using 1 OpenMP thread(s) per MPI task
Reading data file ...
  orthogonal box = (0 0 0) to (40 20 37.2886)
  2 by 2 by 2 MPI processor grid
  reading atoms ...
  32000 atoms
  reading velocities ...
  32000 velocities
  read_data CPU = 0.112 seconds
912 atoms in group bottom
31088 atoms in group active
  generated 0 of 1 mixed pair_coeff terms from geometric mixing rule
Neighbor list info ...
  update every 1 steps, delay 0 steps, check yes
  max neighbors/atom: 2000, page size: 100000
  master list distance cutoff = 1.1
  ghost atom cutoff = 1.1
  binsize = 0.55, bins = 73 37 68
  1 neighbor lists, perpetual/occasional/extra = 1 0 0
  (1) pair gran/hooke/history, perpetual
      attributes: half, newton off, size, history
      pair build: half/size/bin/newtoff
      stencil: full/bin/3d
      bin: standard
Setting up Verlet run ...
  Unit style    : lj
  Current step  : 0
  Time step     : 0.0001
Per MPI rank memory allocation (min/avg/max) = 10.39 | 10.39 | 10.39 Mbytes
Step Atoms KinEng c_1 Volume 
       0    32000    784139.13    1601.1263    29833.783 
     100    32000    784292.08    1571.0968    29834.707 
     200    32000    784422.71    1573.8634     29836.23 
     300    32000    784563.48    1580.4742    29837.727 
     400    32000    784708.17    1572.2381     29839.15 
     500    32000    784831.77    1564.0479    29840.694 
     600    32000    784971.37    1564.4511    29842.232 
     700    32000     785128.6    1552.4596    29843.695 
     800    32000    785290.26    1555.2209    29845.083 
     900    32000    785460.68    1545.8818    29846.397 
    1000    32000    785572.21    1539.8672    29847.635 
    1100    32000    785702.57    1533.8018    29848.799 
    1200    32000    785822.06    1545.9335    29849.888 
    1300    32000    785929.63    1549.9353    29850.902 
    1400    32000    786011.56    1552.8199    29851.841 
    1500    32000    786107.94    1566.1477    29852.706 
    1600    32000    786190.87    1573.3323    29853.496 
    1700    32000     786268.8    1592.7949    29854.211 
    1800    32000    786324.94    1606.0429    29854.646 
    1900    32000    786375.84    1614.3405    29855.236 
    2000    32000    786433.32    1618.8655    29855.751 
    2100    32000    786487.22    1636.6884    29856.192 
    2200    32000    786552.82    1640.6584    29856.558 
    2300    32000    786614.66    1639.1746    29856.849 
    2400    32000    786690.16    1633.1781    29857.065 
    2500    32000    786750.18    1631.7449    29857.206 
    2600    32000    786796.47    1639.3144    29857.273 
    2700    32000     786838.1    1646.8977    29857.318 
    2800    32000    786859.64    1647.0463    29857.485 
    2900    32000    786892.29    1653.4073    29857.576 
    3000    32000    786909.39    1658.7637    29857.593 
    3100    32000    786943.91    1667.6977    29857.535 
    3200    32000    786987.45    1667.5528    29857.403 
    3300    32000    787053.77    1673.5619    29857.195 
    3400    32000    787122.78    1666.5846    29856.916 
    3500    32000    787201.93    1662.5926    29856.571 
    3600    32000     787284.7    1656.5942    29856.156 
    3700    32000    787352.81    1642.5068    29855.664 
    3800    32000    787391.31    1652.3199    29855.089 
    3900    32000    787436.74    1649.3468    29854.664 
    4000    32000    787485.27    1653.3303    29853.965 
    4100    32000    787515.42    1649.0645    29853.311 
    4200    32000    787528.81    1650.5174    29853.338 
    4300    32000    787540.56    1657.8927    29853.412 
    4400    32000       787571    1649.9922    29853.412 
    4500    32000    787571.62    1658.4598    29853.336 
    4600    32000    787583.42     1661.258    29853.185 
    4700    32000     787594.2    1679.6997     29852.96 
    4800    32000    787605.32    1675.5405     29852.66 
    4900    32000    787609.56    1687.2085    29852.285 
    5000    32000    787624.83    1702.1603    29851.836 
    5100    32000    787668.78    1709.4069    29851.311 
    5200    32000    787722.03    1709.1583    29850.712 
    5300    32000    787770.72    1710.6933    29850.038 
    5400    32000    787817.68    1713.5778    29849.888 
    5500    32000    787888.82    1706.9701    29849.951 
    5600    32000    787951.51    1703.8659    29849.952 
    5700    32000    788006.45    1707.9352     29849.89 
    5800    32000    788047.49    1707.0937    29849.754 
    5900    32000    788095.67     1707.466    29849.543 
    6000    32000    788164.97    1709.4844    29849.257 
    6100    32000    788240.09     1709.077      29848.9 
    6200    32000    788315.43     1710.111    29848.479 
    6300    32000    788390.73    1709.0881    29847.982 
    6400    32000    788455.03    1708.5507    29847.414 
    6500    32000    788515.97    1700.4623     29846.78 
    6600    32000    788594.11    1690.1334     29846.26 
    6700    32000    788670.06    1681.5036    29846.352 
    6800    32000    788749.16    1684.0676    29846.371 
    6900    32000    788828.53    1669.1287    29846.316 
    7000    32000    788896.15    1678.5559    29846.186 
    7100    32000    788981.69    1670.1616    29845.981 
    7200    32000    789049.74    1661.8599    29845.701 
    7300    32000    789106.42    1671.6001    29845.347 
    7400    32000    789174.73    1662.0884    29844.918 
    7500    32000    789228.62    1663.3795    29844.413 
    7600    32000     789266.3    1666.7821    29843.835 
    7700    32000    789315.23    1674.8766    29843.181 
    7800    32000    789370.53    1675.9244    29842.452 
    7900    32000    789428.52    1675.1504    29841.649 
    8000    32000    789477.53     1677.294    29840.771 
    8100    32000    789527.86    1678.2287    29840.144 
    8200    32000    789591.57    1671.9612    29839.141 
    8300    32000     789637.3    1670.0088    29838.063 
    8400    32000    789685.32    1669.3306    29836.911 
    8500    32000    789725.29    1669.0447    29835.684 
    8600    32000    789745.03    1670.7561    29834.381 
    8700    32000    789761.58     1678.918    29833.005 
    8800    32000    789768.62    1685.1823    29831.553 
    8900    32000    789758.13    1688.3432    29830.026 
    9000    32000    789735.55    1695.1599    29828.441 
    9100    32000    789693.01     1703.769    29826.816 
    9200    32000    789638.22    1713.2499    29825.121 
    9300    32000    789558.95    1712.8133    29823.355 
    9400    32000    789505.76      1713.21    29821.518 
    9500    32000    789454.46    1721.9071    29819.611 
    9600    32000    789412.14    1739.1568    29817.634 
    9700    32000    789379.93    1733.7289    29815.586 
    9800    32000    789362.53    1729.1859    29813.468 
    9900    32000    789370.13    1718.8286    29811.279 
   10000    32000    789352.91    1714.7353    29809.617 
Loop time of 4.73495 on 8 procs for 10000 steps with 32000 atoms

Performance: 18247.277 tau/day, 2111.953 timesteps/s
99.1% CPU use with 8 MPI tasks x 1 OpenMP threads

MPI task timing breakdown:
Section |  min time  |  avg time  |  max time  |%varavg| %total
---------------------------------------------------------------
Pair    | 1.7271     | 1.9964     | 2.4242     |  19.2 | 42.16
Neigh   | 0.66268    | 0.73072    | 0.78231    |   3.6 | 15.43
Comm    | 0.51526    | 0.54668    | 0.57978    |   2.8 | 11.55
Output  | 0.0031542  | 0.0073479  | 0.0099273  |   3.0 |  0.16
Modify  | 0.66618    | 0.72575    | 0.78091    |   3.4 | 15.33
Other   |            | 0.728      |            |       | 15.38

Nlocal:           4000 ave        4019 max        3988 min
Histogram: 2 1 1 0 1 1 0 1 0 1
Nghost:        1738.88 ave        1746 max        1730 min
Histogram: 1 0 0 2 1 1 0 0 1 2
Neighs:        15100.1 ave       15506 max       14633 min
Histogram: 1 3 0 0 0 0 0 0 1 3

Total # of neighbors = 120801
Ave neighs/atom = 3.7750313
Neighbor list builds = 295
Dangerous builds = 0
Total wall time: 0:00:04
Intel(R) VTune(TM) Profiler 2022.2.0 collection completed successfully. Use the "aps --report /home/ubuntu/lammps/bench/aps_result_20220703" command to generate textual and HTML reports for the profiling session.
