LAMMPS (7 Jan 2022)
  using 1 OpenMP thread(s) per MPI task
Reading data file ...
  orthogonal box = (0 0 0) to (40 20 37.2886)
  2 by 1 by 1 MPI processor grid
  reading atoms ...
  32000 atoms
  reading velocities ...
  32000 velocities
  read_data CPU = 0.191 seconds
Replicating atoms ...
  orthogonal box = (0 0 0) to (120 60 37.292229)
  2 by 1 by 1 MPI processor grid
  288000 atoms
  replicate CPU = 0.038 seconds
8208 atoms in group bottom
279792 atoms in group active
  generated 0 of 1 mixed pair_coeff terms from geometric mixing rule
Neighbor list info ...
  update every 1 steps, delay 0 steps, check yes
  max neighbors/atom: 2000, page size: 100000
  master list distance cutoff = 1.1
  ghost atom cutoff = 1.1
  binsize = 0.55, bins = 219 110 68
  1 neighbor lists, perpetual/occasional/extra = 1 0 0
  (1) pair gran/hooke/history, perpetual
      attributes: half, newton off, size, history
      pair build: half/size/bin/newtoff
      stencil: full/bin/3d
      bin: standard
Setting up Verlet run ...
  Unit style    : lj
  Current step  : 0
  Time step     : 0.0001
Per MPI rank memory allocation (min/avg/max) = 70.99 | 70.99 | 70.99 Mbytes
Step Atoms KinEng c_1 Volume 
       0   288000    7057252.2    14410.137    268504.05 
     100   288000    7058628.7    14139.871    268512.37 
Loop time of 2.28857 on 2 procs for 100 steps with 288000 atoms

Performance: 377.528 tau/day, 43.695 timesteps/s
69.4% CPU use with 2 MPI tasks x 1 OpenMP threads

MPI task timing breakdown:
Section |  min time  |  avg time  |  max time  |%varavg| %total
---------------------------------------------------------------
Pair    | 0.67879    | 0.92931    | 1.1798     |  26.0 | 40.61
Neigh   | 0.18647    | 0.23618    | 0.28589    |  10.2 | 10.32
Comm    | 0.084115   | 0.12751    | 0.17091    |  12.2 |  5.57
Output  | 0.00054821 | 0.00056704 | 0.00058588 |   0.0 |  0.02
Modify  | 0.29424    | 0.36773    | 0.44123    |  12.1 | 16.07
Other   |            | 0.6273     |            |       | 27.41

Nlocal:         144000 ave      144000 max      144000 min
Histogram: 2 0 0 0 0 0 0 0 0 0
Nghost:          10726 ave       10726 max       10726 min
Histogram: 2 0 0 0 0 0 0 0 0 0
Neighs:         507629 ave      507629 max      507629 min
Histogram: 2 0 0 0 0 0 0 0 0 0

Total # of neighbors = 1015258
Ave neighs/atom = 3.5252014
Neighbor list builds = 2
Dangerous builds = 0
Total wall time: 0:00:02
Intel(R) VTune(TM) Profiler 2022.2.0 collection completed successfully. Use the "aps --report /home/ubuntu/lammps/bench/aps_result_20220526" command to generate textual and HTML reports for the profiling session.
