LAMMPS (7 Jan 2022)
  using 1 OpenMP thread(s) per MPI task
Reading data file ...
  orthogonal box = (-16.796 -16.796 -16.796) to (16.796 16.796 16.796)
  2 by 4 by 4 MPI processor grid
  reading atoms ...
  32000 atoms
  reading velocities ...
  32000 velocities
  scanning bonds ...
  1 = max bonds/atom
  reading bonds ...
  31680 bonds
Finding 1-2 1-3 1-4 neighbors ...
  special bond factors lj:    0        1        1       
  special bond factors coul:  0        1        1       
     2 = max # of 1-2 neighbors
     2 = max # of special neighbors
  special bonds CPU = 0.002 seconds
  read_data CPU = 0.114 seconds
Replicating atoms ...
  orthogonal box = (-16.796 -16.796 -16.796) to (117.572 117.572 117.572)
  2 by 4 by 4 MPI processor grid
  2048000 atoms
  2027520 bonds
Finding 1-2 1-3 1-4 neighbors ...
  special bond factors lj:    0        1        1       
  special bond factors coul:  0        1        1       
     2 = max # of 1-2 neighbors
     2 = max # of special neighbors
  special bonds CPU = 0.020 seconds
  replicate CPU = 0.055 seconds
----------------------------------------------------------
Using INTEL Package without Coprocessor.
Compiler: Intel Classic C++ 20.21.5 / Intel(R) C++ g++ 9.3 mode
SIMD compiler directives: Enabled
Precision: double
----------------------------------------------------------
  generated 0 of 0 mixed pair_coeff terms from geometric mixing rule
Neighbor list info ...
  update every 1 steps, delay 1 steps, check yes
  max neighbors/atom: 2000, page size: 100000
  master list distance cutoff = 1.52
  ghost atom cutoff = 1.52
  binsize = 0.76, bins = 177 177 177
  1 neighbor lists, perpetual/occasional/extra = 1 0 0
  (1) pair lj/cut/intel, perpetual
      attributes: half, newton on, intel
      pair build: half/bin/newton/intel
      stencil: half/bin/3d
      bin: intel
Setting up Verlet run ...
  Unit style    : lj
  Current step  : 0
  Time step     : 0.012
WARNING: Communication cutoff 1.52 is shorter than a bond length based estimate of 1.855. This may lead to errors. (../comm.cpp:723)
Per MPI rank memory allocation (min/avg/max) = 567.9 | 567.9 | 567.9 Mbytes
Step Temp E_pair E_mol TotEng Press 
       0   0.97026787   0.44484087    20.494523    22.394765    4.6721833 
     100   0.97348508   0.44171557    20.501765    22.403707    4.6932989 
Loop time of 2.12676 on 32 procs for 100 steps with 2048000 atoms

Performance: 48750.253 tau/day, 47.020 timesteps/s
98.4% CPU use with 32 MPI tasks x 1 OpenMP threads

MPI task timing breakdown:
Section |  min time  |  avg time  |  max time  |%varavg| %total
---------------------------------------------------------------
Pair    | 0.36923    | 0.41344    | 0.4332     |   3.7 | 19.44
Bond    | 0.10377    | 0.12381    | 0.13633    |   2.8 |  5.82
Neigh   | 0.52463    | 0.52655    | 0.52932    |   0.2 | 24.76
Comm    | 0.48214    | 0.51051    | 0.5773     |   4.7 | 24.00
Output  | 0.00031383 | 0.00082111 | 0.001217   |   0.0 |  0.04
Modify  | 0.35716    | 0.43664    | 0.4686     |   6.3 | 20.53
Other   |            | 0.115      |            |       |  5.41

Nlocal:          64000 ave       64050 max       63943 min
Histogram: 2 1 6 1 4 5 2 4 5 2
Nghost:          15546 ave       15625 max       15464 min
Histogram: 2 1 1 6 6 6 3 4 2 1
Neighs:         374924 ave      375426 max      374335 min
Histogram: 2 0 3 4 4 7 3 5 3 1

Total # of neighbors = 11997569
Ave neighs/atom = 5.858188
Ave special neighs/atom = 1.98
Neighbor list builds = 26
Dangerous builds = 0
Total wall time: 0:00:02
Intel(R) VTune(TM) Profiler 2022.2.0 collection completed successfully. Use the "aps --report /home/ubuntu/lammps/bench/aps_result_20220601" command to generate textual and HTML reports for the profiling session.
