LAMMPS (7 Jan 2022)
  using 1 OpenMP thread(s) per MPI task
Reading data file ...
  orthogonal box = (-16.796 -16.796 -16.796) to (16.796 16.796 16.796)
  1 by 1 by 1 MPI processor grid
  reading atoms ...
  32000 atoms
  reading velocities ...
  32000 velocities
  scanning bonds ...
  1 = max bonds/atom
  reading bonds ...
  31680 bonds
Finding 1-2 1-3 1-4 neighbors ...
  special bond factors lj:    0        1        1       
  special bond factors coul:  0        1        1       
     2 = max # of 1-2 neighbors
     2 = max # of special neighbors
  special bonds CPU = 0.006 seconds
  read_data CPU = 0.167 seconds
Replicating atoms ...
  orthogonal box = (-16.796 -16.796 -16.796) to (50.388 50.388 50.388)
  1 by 1 by 1 MPI processor grid
  256000 atoms
  253440 bonds
Finding 1-2 1-3 1-4 neighbors ...
  special bond factors lj:    0        1        1       
  special bond factors coul:  0        1        1       
     2 = max # of 1-2 neighbors
     2 = max # of special neighbors
  special bonds CPU = 0.070 seconds
  replicate CPU = 0.130 seconds
----------------------------------------------------------
Using INTEL Package without Coprocessor.
Compiler: Intel Classic C++ 20.21.5 / Intel(R) C++ g++ 9.3 mode
SIMD compiler directives: Enabled
Precision: single
----------------------------------------------------------
  generated 0 of 0 mixed pair_coeff terms from geometric mixing rule
Neighbor list info ...
  update every 1 steps, delay 1 steps, check yes
  max neighbors/atom: 2000, page size: 100000
  master list distance cutoff = 1.52
  ghost atom cutoff = 1.52
  binsize = 0.76, bins = 89 89 89
  1 neighbor lists, perpetual/occasional/extra = 1 0 0
  (1) pair lj/cut/intel, perpetual
      attributes: half, newton on, intel
      pair build: half/bin/newton/intel
      stencil: half/bin/3d
      bin: intel
Setting up Verlet run ...
  Unit style    : lj
  Current step  : 0
  Time step     : 0.012
WARNING: Communication cutoff 1.52 is shorter than a bond length based estimate of 1.855. This may lead to errors. (../comm.cpp:723)
Per MPI rank memory allocation (min/avg/max) = 2245 | 2245 | 2245 Mbytes
Step Temp E_pair E_mol TotEng Press 
       0   0.97027119   0.44483258    20.494012    22.394245    4.6721772 
     100   0.97272974   0.44168167    20.502887    22.403657    4.7031394 
Loop time of 10.9027 on 1 procs for 100 steps with 256000 atoms

Performance: 9509.559 tau/day, 9.172 timesteps/s
50.0% CPU use with 1 MPI tasks x 1 OpenMP threads

MPI task timing breakdown:
Section |  min time  |  avg time  |  max time  |%varavg| %total
---------------------------------------------------------------
Pair    | 3.0483     | 3.0483     | 3.0483     |   0.0 | 27.96
Bond    | 0.6425     | 0.6425     | 0.6425     |   0.0 |  5.89
Neigh   | 2.8406     | 2.8406     | 2.8406     |   0.0 | 26.05
Comm    | 1.5492     | 1.5492     | 1.5492     |   0.0 | 14.21
Output  | 0.00061571 | 0.00061571 | 0.00061571 |   0.0 |  0.01
Modify  | 2.4597     | 2.4597     | 2.4597     |   0.0 | 22.56
Other   |            | 0.3618     |            |       |  3.32

Nlocal:         256000 ave      256000 max      256000 min
Histogram: 1 0 0 0 0 0 0 0 0 0
Nghost:          36297 ave       36297 max       36297 min
Histogram: 1 0 0 0 0 0 0 0 0 0
Neighs:    1.49888e+06 ave 1.49888e+06 max 1.49888e+06 min
Histogram: 1 0 0 0 0 0 0 0 0 0

Total # of neighbors = 1498880
Ave neighs/atom = 5.855
Ave special neighs/atom = 1.98
Neighbor list builds = 26
Dangerous builds = 0
Total wall time: 0:00:11
Intel(R) VTune(TM) Profiler 2022.2.0 collection completed successfully. Use the "aps --report /home/ubuntu/lammps/bench/aps_result_20220531" command to generate textual and HTML reports for the profiling session.
