LAMMPS (7 Jan 2022)
  using 1 OpenMP thread(s) per MPI task
Reading data file ...
  orthogonal box = (-16.796 -16.796 -16.796) to (16.796 16.796 16.796)
  1 by 1 by 2 MPI processor grid
  reading atoms ...
  32000 atoms
  reading velocities ...
  32000 velocities
  scanning bonds ...
  1 = max bonds/atom
  reading bonds ...
  31680 bonds
Finding 1-2 1-3 1-4 neighbors ...
  special bond factors lj:    0        1        1       
  special bond factors coul:  0        1        1       
     2 = max # of 1-2 neighbors
     2 = max # of special neighbors
  special bonds CPU = 0.002 seconds
  read_data CPU = 0.462 seconds
----------------------------------------------------------
Using INTEL Package without Coprocessor.
Compiler: Intel Classic C++ 20.21.5 / Intel(R) C++ g++ 9.3 mode
SIMD compiler directives: Enabled
Precision: single
----------------------------------------------------------
  generated 0 of 0 mixed pair_coeff terms from geometric mixing rule
Neighbor list info ...
  update every 1 steps, delay 1 steps, check yes
  max neighbors/atom: 2000, page size: 100000
  master list distance cutoff = 1.52
  ghost atom cutoff = 1.52
  binsize = 0.76, bins = 45 45 45
  1 neighbor lists, perpetual/occasional/extra = 1 0 0
  (1) pair lj/cut/intel, perpetual
      attributes: half, newton on, intel
      pair build: half/bin/newton/intel
      stencil: half/bin/3d
      bin: intel
Setting up Verlet run ...
  Unit style    : lj
  Current step  : 0
  Time step     : 0.012
WARNING: Communication cutoff 1.52 is shorter than a bond length based estimate of 1.855. This may lead to errors. (../comm.cpp:723)
Per MPI rank memory allocation (min/avg/max) = 144.1 | 144.2 | 144.4 Mbytes
Step Temp E_pair E_mol TotEng Press 
       0   0.97029772   0.44484056    20.494529    22.394771    4.6721836 
     100   0.97521178   0.44597592    20.500506    22.409254    4.7091973 
Loop time of 2.27615 on 2 procs for 100 steps with 32000 atoms

Performance: 45550.527 tau/day, 43.934 timesteps/s
38.1% CPU use with 2 MPI tasks x 1 OpenMP threads

MPI task timing breakdown:
Section |  min time  |  avg time  |  max time  |%varavg| %total
---------------------------------------------------------------
Pair    | 0.11401    | 0.14589    | 0.17777    |   8.3 |  6.41
Bond    | 0.030765   | 0.062724   | 0.094683   |  12.8 |  2.76
Neigh   | 0.37918    | 0.38067    | 0.38216    |   0.2 | 16.72
Comm    | 0.96657    | 1.0959     | 1.2253     |  12.4 | 48.15
Output  | 4.0199e-05 | 4.835e-05  | 5.6502e-05 |   0.0 |  0.00
Modify  | 0.10895    | 0.13327    | 0.15758    |   6.7 |  5.85
Other   |            | 0.4576     |            |       | 20.10

Nlocal:          16000 ave       16030 max       15970 min
Histogram: 1 0 0 0 0 0 0 0 0 1
Nghost:           6485 ave        6532 max        6438 min
Histogram: 1 0 0 0 0 0 0 0 0 1
Neighs:          93661 ave       93884 max       93438 min
Histogram: 1 0 0 0 0 0 0 0 0 1

Total # of neighbors = 187322
Ave neighs/atom = 5.8538125
Ave special neighs/atom = 1.98
Neighbor list builds = 25
Dangerous builds = 0
Total wall time: 0:00:02
Intel(R) VTune(TM) Profiler 2022.2.0 collection completed successfully. Use the "aps --report /home/ubuntu/lammps/bench/aps_result_20220531" command to generate textual and HTML reports for the profiling session.
