LAMMPS (7 Jan 2022)
  using 1 OpenMP thread(s) per MPI task
Reading data file ...
  orthogonal box = (-16.796 -16.796 -16.796) to (16.796 16.796 16.796)
  2 by 2 by 2 MPI processor grid
  reading atoms ...
  32000 atoms
  reading velocities ...
  32000 velocities
  scanning bonds ...
  1 = max bonds/atom
  reading bonds ...
  31680 bonds
Finding 1-2 1-3 1-4 neighbors ...
  special bond factors lj:    0        1        1       
  special bond factors coul:  0        1        1       
     2 = max # of 1-2 neighbors
     2 = max # of special neighbors
  special bonds CPU = 0.173 seconds
  read_data CPU = 0.373 seconds
----------------------------------------------------------
Using INTEL Package without Coprocessor.
Compiler: Intel Classic C++ 20.21.5 / Intel(R) C++ g++ 9.3 mode
SIMD compiler directives: Enabled
Precision: double
----------------------------------------------------------
  generated 0 of 0 mixed pair_coeff terms from geometric mixing rule
Neighbor list info ...
  update every 1 steps, delay 1 steps, check yes
  max neighbors/atom: 2000, page size: 100000
  master list distance cutoff = 1.52
  ghost atom cutoff = 1.52
  binsize = 0.76, bins = 45 45 45
  1 neighbor lists, perpetual/occasional/extra = 1 0 0
  (1) pair lj/cut/intel, perpetual
      attributes: half, newton on, intel
      pair build: half/bin/newton/intel
      stencil: half/bin/3d
      bin: intel
Setting up Verlet run ...
  Unit style    : lj
  Current step  : 0
  Time step     : 0.012
WARNING: Communication cutoff 1.52 is shorter than a bond length based estimate of 1.855. This may lead to errors. (../comm.cpp:723)
Per MPI rank memory allocation (min/avg/max) = 38.39 | 38.58 | 38.68 Mbytes
Step Temp E_pair E_mol TotEng Press 
       0   0.97029772   0.44484087    20.494523    22.394765    4.6721833 
     100   0.97261454   0.43907273    20.504318    22.402267    4.6537035 
Loop time of 2.02171 on 8 procs for 100 steps with 32000 atoms

Performance: 51283.205 tau/day, 49.463 timesteps/s
73.2% CPU use with 8 MPI tasks x 1 OpenMP threads

MPI task timing breakdown:
Section |  min time  |  avg time  |  max time  |%varavg| %total
---------------------------------------------------------------
Pair    | 0.016344   | 0.019268   | 0.023962   |   1.4 |  0.95
Bond    | 0.0039042  | 0.0065103  | 0.019936   |   6.3 |  0.32
Neigh   | 0.11232    | 0.1547     | 0.205      |  10.9 |  7.65
Comm    | 0.71989    | 1.016      | 1.4303     |  24.3 | 50.25
Output  | 2.3362e-05 | 2.7344e-05 | 2.9691e-05 |   0.0 |  0.00
Modify  | 0.01932    | 0.024366   | 0.035707   |   2.9 |  1.21
Other   |            | 0.8009     |            |       | 39.61

Nlocal:           4000 ave        4034 max        3967 min
Histogram: 1 0 1 0 3 1 0 1 0 1
Nghost:        2587.88 ave        2624 max        2543 min
Histogram: 1 0 0 1 1 1 2 1 0 1
Neighs:        23440.9 ave       23681 max       23060 min
Histogram: 1 0 0 0 1 0 3 1 1 1

Total # of neighbors = 187527
Ave neighs/atom = 5.8602187
Ave special neighs/atom = 1.98
Neighbor list builds = 25
Dangerous builds = 0
Total wall time: 0:00:02
Intel(R) VTune(TM) Profiler 2022.2.0 collection completed successfully. Use the "aps --report /home/ubuntu/lammps/bench/aps_result_20220531" command to generate textual and HTML reports for the profiling session.
