LAMMPS (7 Jan 2022)
  using 1 OpenMP thread(s) per MPI task
Reading data file ...
  orthogonal box = (-16.796 -16.796 -16.796) to (16.796 16.796 16.796)
  2 by 4 by 4 MPI processor grid
  reading atoms ...
  32000 atoms
  reading velocities ...
  32000 velocities
  scanning bonds ...
  1 = max bonds/atom
  reading bonds ...
  31680 bonds
Finding 1-2 1-3 1-4 neighbors ...
  special bond factors lj:    0        1        1       
  special bond factors coul:  0        1        1       
     2 = max # of 1-2 neighbors
     2 = max # of special neighbors
  special bonds CPU = 0.030 seconds
  read_data CPU = 0.498 seconds
----------------------------------------------------------
Using INTEL Package without Coprocessor.
Compiler: Intel Classic C++ 20.21.5 / Intel(R) C++ g++ 9.3 mode
SIMD compiler directives: Enabled
Precision: double
----------------------------------------------------------
  generated 0 of 0 mixed pair_coeff terms from geometric mixing rule
Neighbor list info ...
  update every 1 steps, delay 1 steps, check yes
  max neighbors/atom: 2000, page size: 100000
  master list distance cutoff = 1.52
  ghost atom cutoff = 1.52
  binsize = 0.76, bins = 45 45 45
  1 neighbor lists, perpetual/occasional/extra = 1 0 0
  (1) pair lj/cut/intel, perpetual
      attributes: half, newton on, intel
      pair build: half/bin/newton/intel
      stencil: half/bin/3d
      bin: intel
Setting up Verlet run ...
  Unit style    : lj
  Current step  : 0
  Time step     : 0.012
WARNING: Communication cutoff 1.52 is shorter than a bond length based estimate of 1.855. This may lead to errors. (../comm.cpp:723)
Per MPI rank memory allocation (min/avg/max) = 12.68 | 12.89 | 13.08 Mbytes
Step Temp E_pair E_mol TotEng Press 
       0   0.97029772   0.44484087    20.494523    22.394765    4.6721833 
     100   0.97598641   0.43595421    20.501404    22.401292    4.7082829 
Loop time of 0.449183 on 32 procs for 100 steps with 32000 atoms

Performance: 230819.075 tau/day, 222.626 timesteps/s
83.1% CPU use with 32 MPI tasks x 1 OpenMP threads

MPI task timing breakdown:
Section |  min time  |  avg time  |  max time  |%varavg| %total
---------------------------------------------------------------
Pair    | 0.004112   | 0.0059136  | 0.0069703  |   1.0 |  1.32
Bond    | 0.00095966 | 0.0012379  | 0.0013632  |   0.3 |  0.28
Neigh   | 0.0095872  | 0.019567   | 0.056926   |   7.9 |  4.36
Comm    | 0.18256    | 0.21851    | 0.36239    |   6.5 | 48.65
Output  | 2.6633e-05 | 3.2634e-05 | 4.889e-05  |   0.0 |  0.01
Modify  | 0.0049215  | 0.0060418  | 0.0068835  |   0.6 |  1.35
Other   |            | 0.1979     |            |       | 44.05

Nlocal:           1000 ave        1025 max         985 min
Histogram: 2 2 8 7 4 4 3 1 0 1
Nghost:        1196.84 ave        1227 max        1173 min
Histogram: 5 2 1 3 7 7 1 3 2 1
Neighs:        5854.47 ave        6109 max        5713 min
Histogram: 2 6 4 5 9 5 0 0 0 1

Total # of neighbors = 187343
Ave neighs/atom = 5.8544687
Ave special neighs/atom = 1.98
Neighbor list builds = 25
Dangerous builds = 0
Total wall time: 0:00:01
Intel(R) VTune(TM) Profiler 2022.2.0 collection completed successfully. Use the "aps --report /home/ubuntu/lammps/bench/aps_result_20220531" command to generate textual and HTML reports for the profiling session.
