LAMMPS (7 Jan 2022)
  using 1 OpenMP thread(s) per MPI task
Reading data file ...
  orthogonal box = (0 0 0) to (40 20 37.2886)
  2 by 2 by 2 MPI processor grid
  reading atoms ...
  32000 atoms
  reading velocities ...
  32000 velocities
  read_data CPU = 0.105 seconds
Replicating atoms ...
  orthogonal box = (0 0 0) to (120 60 37.292229)
  4 by 2 by 1 MPI processor grid
  288000 atoms
  replicate CPU = 0.026 seconds
8208 atoms in group bottom
279792 atoms in group active
  generated 0 of 1 mixed pair_coeff terms from geometric mixing rule
Neighbor list info ...
  update every 1 steps, delay 0 steps, check yes
  max neighbors/atom: 2000, page size: 100000
  master list distance cutoff = 1.1
  ghost atom cutoff = 1.1
  binsize = 0.55, bins = 219 110 68
  1 neighbor lists, perpetual/occasional/extra = 1 0 0
  (1) pair gran/hooke/history, perpetual
      attributes: half, newton off, size, history
      pair build: half/size/bin/newtoff
      stencil: full/bin/3d
      bin: standard
Setting up Verlet run ...
  Unit style    : lj
  Current step  : 0
  Time step     : 0.0001
Per MPI rank memory allocation (min/avg/max) = 23.78 | 23.78 | 23.78 Mbytes
Step Atoms KinEng c_1 Volume 
       0   288000    7057252.2    14410.137    268504.05 
     100   288000    7058628.7    14139.871    268512.37 
Loop time of 0.413765 on 8 procs for 100 steps with 288000 atoms

Performance: 2088.140 tau/day, 241.683 timesteps/s
99.8% CPU use with 8 MPI tasks x 1 OpenMP threads

MPI task timing breakdown:
Section |  min time  |  avg time  |  max time  |%varavg| %total
---------------------------------------------------------------
Pair    | 0.18859    | 0.19189    | 0.19549    |   0.5 | 46.38
Neigh   | 0.046993   | 0.047181   | 0.047684   |   0.1 | 11.40
Comm    | 0.030555   | 0.031429   | 0.032772   |   0.5 |  7.60
Output  | 0.00027858 | 0.00036677 | 0.00044929 |   0.0 |  0.09
Modify  | 0.089721   | 0.096433   | 0.1058     |   2.0 | 23.31
Other   |            | 0.04646    |            |       | 11.23

Nlocal:          36000 ave       36006 max       35994 min
Histogram: 4 0 0 0 0 0 0 0 0 4
Nghost:         5469.5 ave        5471 max        5468 min
Histogram: 4 0 0 0 0 0 0 0 0 4
Neighs:         128970 ave      129015 max      128925 min
Histogram: 4 0 0 0 0 0 0 0 0 4

Total # of neighbors = 1031760
Ave neighs/atom = 3.5825
Neighbor list builds = 2
Dangerous builds = 0
Total wall time: 0:00:00
Intel(R) VTune(TM) Profiler 2022.2.0 collection completed successfully. Use the "aps --report /home/ubuntu/lammps/bench/aps_result_20220601" command to generate textual and HTML reports for the profiling session.
