LAMMPS (7 Jan 2022)
  using 1 OpenMP thread(s) per MPI task
Reading data file ...
  orthogonal box = (-16.796 -16.796 -16.796) to (16.796 16.796 16.796)
  1 by 1 by 1 MPI processor grid
  reading atoms ...
  32000 atoms
  reading velocities ...
  32000 velocities
  scanning bonds ...
  1 = max bonds/atom
  reading bonds ...
  31680 bonds
Finding 1-2 1-3 1-4 neighbors ...
  special bond factors lj:    0        1        1       
  special bond factors coul:  0        1        1       
     2 = max # of 1-2 neighbors
     2 = max # of special neighbors
  special bonds CPU = 0.004 seconds
  read_data CPU = 0.165 seconds
----------------------------------------------------------
Using INTEL Package without Coprocessor.
Compiler: Intel Classic C++ 20.21.5 / Intel(R) C++ g++ 9.3 mode
SIMD compiler directives: Enabled
Precision: single
----------------------------------------------------------
  generated 0 of 0 mixed pair_coeff terms from geometric mixing rule
Neighbor list info ...
  update every 1 steps, delay 1 steps, check yes
  max neighbors/atom: 2000, page size: 100000
  master list distance cutoff = 1.52
  ghost atom cutoff = 1.52
  binsize = 0.76, bins = 45 45 45
  1 neighbor lists, perpetual/occasional/extra = 1 0 0
  (1) pair lj/cut/intel, perpetual
      attributes: half, newton on, intel
      pair build: half/bin/newton/intel
      stencil: half/bin/3d
      bin: intel
Setting up Verlet run ...
  Unit style    : lj
  Current step  : 0
  Time step     : 0.012
WARNING: Communication cutoff 1.52 is shorter than a bond length based estimate of 1.855. This may lead to errors. (../comm.cpp:723)
Per MPI rank memory allocation (min/avg/max) = 283.1 | 283.1 | 283.1 Mbytes
Step Temp E_pair E_mol TotEng Press 
       0   0.97029772   0.44483951    20.494344    22.394584    4.6721838 
     100   0.97158517   0.43935101     20.50382    22.400504     4.701399 
Loop time of 1.22473 on 1 procs for 100 steps with 32000 atoms

Performance: 84655.630 tau/day, 81.651 timesteps/s
50.0% CPU use with 1 MPI tasks x 1 OpenMP threads

MPI task timing breakdown:
Section |  min time  |  avg time  |  max time  |%varavg| %total
---------------------------------------------------------------
Pair    | 0.40101    | 0.40101    | 0.40101    |   0.0 | 32.74
Bond    | 0.094492   | 0.094492   | 0.094492   |   0.0 |  7.72
Neigh   | 0.32442    | 0.32442    | 0.32442    |   0.0 | 26.49
Comm    | 0.12255    | 0.12255    | 0.12255    |   0.0 | 10.01
Output  | 6.195e-05  | 6.195e-05  | 6.195e-05  |   0.0 |  0.01
Modify  | 0.23441    | 0.23441    | 0.23441    |   0.0 | 19.14
Other   |            | 0.04777    |            |       |  3.90

Nlocal:          32000 ave       32000 max       32000 min
Histogram: 1 0 0 0 0 0 0 0 0 0
Nghost:           9555 ave        9555 max        9555 min
Histogram: 1 0 0 0 0 0 0 0 0 0
Neighs:         187519 ave      187519 max      187519 min
Histogram: 1 0 0 0 0 0 0 0 0 0

Total # of neighbors = 187519
Ave neighs/atom = 5.8599688
Ave special neighs/atom = 1.98
Neighbor list builds = 25
Dangerous builds = 0
Total wall time: 0:00:01
Intel(R) VTune(TM) Profiler 2022.2.0 collection completed successfully. Use the "aps --report /home/ubuntu/lammps/bench/aps_result_20220531" command to generate textual and HTML reports for the profiling session.
