LAMMPS (7 Jan 2022)
  using 1 OpenMP thread(s) per MPI task
Reading data file ...
  orthogonal box = (-16.796 -16.796 -16.796) to (16.796 16.796 16.796)
  2 by 4 by 4 MPI processor grid
  reading atoms ...
  32000 atoms
  reading velocities ...
  32000 velocities
  scanning bonds ...
  1 = max bonds/atom
  reading bonds ...
  31680 bonds
Finding 1-2 1-3 1-4 neighbors ...
  special bond factors lj:    0        1        1       
  special bond factors coul:  0        1        1       
     2 = max # of 1-2 neighbors
     2 = max # of special neighbors
  special bonds CPU = 0.002 seconds
  read_data CPU = 0.127 seconds
Replicating atoms ...
  orthogonal box = (-16.796 -16.796 -16.796) to (117.572 117.572 117.572)
  2 by 4 by 4 MPI processor grid
  2048000 atoms
  2027520 bonds
Finding 1-2 1-3 1-4 neighbors ...
  special bond factors lj:    0        1        1       
  special bond factors coul:  0        1        1       
     2 = max # of 1-2 neighbors
     2 = max # of special neighbors
  special bonds CPU = 0.021 seconds
  replicate CPU = 0.056 seconds
----------------------------------------------------------
Using INTEL Package without Coprocessor.
Compiler: Intel Classic C++ 20.21.5 / Intel(R) C++ g++ 9.3 mode
SIMD compiler directives: Enabled
Precision: mixed
----------------------------------------------------------
  generated 0 of 0 mixed pair_coeff terms from geometric mixing rule
Neighbor list info ...
  update every 1 steps, delay 1 steps, check yes
  max neighbors/atom: 2000, page size: 100000
  master list distance cutoff = 1.52
  ghost atom cutoff = 1.52
  binsize = 0.76, bins = 177 177 177
  1 neighbor lists, perpetual/occasional/extra = 1 0 0
  (1) pair lj/cut/intel, perpetual
      attributes: half, newton on, intel
      pair build: half/bin/newton/intel
      stencil: half/bin/3d
      bin: intel
Setting up Verlet run ...
  Unit style    : lj
  Current step  : 0
  Time step     : 0.012
WARNING: Communication cutoff 1.52 is shorter than a bond length based estimate of 1.855. This may lead to errors. (../comm.cpp:723)
Per MPI rank memory allocation (min/avg/max) = 566.6 | 566.6 | 566.6 Mbytes
Step Temp E_pair E_mol TotEng Press 
       0   0.97026787     0.444841    20.494523    22.394765    4.6721831 
     100    0.9729452   0.44183494    20.501777    22.403029    4.6931229 
     200   0.97695054   0.44393226    20.503747    22.413105    4.7014055 
     300    0.9816874   0.44459821    20.504866    22.421994    4.7219359 
     400   0.98363028   0.44616007     20.50766    22.429265    4.7301233 
     500   0.98646783   0.44717082    20.508382    22.435254      4.74839 
     600   0.98894569   0.44806723    20.509204    22.440689    4.7549455 
     700   0.99053378   0.44850895    20.510421     22.44473    4.7557645 
     800   0.99185426    0.4507145     20.51103    22.449525    4.7672497 
     900   0.99387372   0.45047831    20.511411      22.4527    4.7620376 
    1000   0.99437814   0.45168538     20.51225    22.455502    4.7749059 
    1100   0.99536693    0.4509522    20.513251    22.457253     4.776576 
    1200    0.9964478   0.45248295    20.512663    22.459817    4.7807465 
    1300   0.99701893   0.45232351    20.513714    22.461565    4.7782788 
    1400    0.9975852   0.45225564    20.513935    22.462568    4.7816949 
    1500   0.99807088   0.45272719    20.514351    22.464184    4.7821708 
    1600   0.99910949   0.45172545    20.515155    22.465544    4.7772158 
    1700   0.99888415   0.45290679    20.516081    22.467314    4.7842323 
    1800   0.99989575   0.45308598    20.515822    22.468751    4.7895861 
    1900    1.0000436   0.45374625    20.514977    22.468788    4.7890905 
    2000    1.0003964   0.45314429    20.515526    22.469264    4.7894294 
    2100    1.0006075    0.4533525    20.515075    22.469338    4.7877548 
    2200    1.0006701   0.45362539    20.515035    22.469665    4.7907775 
    2300    1.0016552   0.45330799    20.515106    22.470896    4.7933337 
    2400    1.0009532   0.45390717    20.515246    22.470582    4.7874622 
    2500    1.0013084   0.45361742    20.515849    22.471428    4.7945068 
    2600    1.0010762   0.45306271    20.516242    22.470918    4.7781653 
    2700    1.0017819   0.45384112    20.514965    22.471479    4.7884026 
    2800    1.0009727   0.45395509    20.516098    22.471512    4.8001886 
    2900    1.0013112   0.45368311    20.515573    22.471223    4.7977114 
    3000    1.0008173   0.45389158    20.516122    22.471239    4.7910667 
    3100    1.0001717   0.45370908    20.516135      22.4701    4.7979874 
    3200    1.0012971   0.45361323    20.515551    22.471109    4.7830326 
    3300    1.0010939   0.45354599    20.515937    22.471123    4.7865535 
    3400    1.0005494   0.45357696    20.516521    22.470922    4.7951354 
    3500    1.0015559   0.45347849    20.514845    22.470656    4.8080542 
    3600    1.0004253   0.45353846    20.515631    22.469807    4.7928464 
    3700    1.0002476   0.45387308    20.515233    22.469477    4.7920872 
    3800   0.99987581   0.45381941    20.515511    22.469144      4.79122 
    3900    1.0003379   0.45387101    20.514631    22.469008    4.7956619 
    4000    1.0007628   0.45317482    20.514973    22.469292    4.7869408 
    4100    1.0003709   0.45411549    20.515158    22.469829    4.8054322 
    4200    1.0009499    0.4532703    20.515186    22.469881     4.775314 
    4300    1.0012766    0.4528237    20.515434    22.470172    4.7915034 
    4400   0.99974185   0.45389717    20.516125    22.469635    4.7925262 
    4500    1.0012493   0.45344203    20.515013    22.470328    4.7943017 
    4600    1.0010582   0.45369895    20.515668    22.470954    4.8031437 
    4700    1.0012756    0.4533203    20.515844    22.471077    4.7899534 
    4800    1.0010382   0.45437906    20.516337    22.472273    4.7891653 
    4900    1.0009425   0.45424669    20.516426    22.472086    4.7903829 
    5000    1.0015608   0.45341797    20.515593    22.471351     4.793763 
    5100    1.0008882   0.45353467    20.515934    22.470801    4.7943928 
    5200    1.0008327   0.45385244    20.515059     22.47016    4.7871259 
    5300     1.000685    0.4543786    20.515296    22.470701    4.7888052 
    5400    1.0006615   0.45470099    20.515203    22.470895    4.8033332 
    5500    1.0004221   0.45358487    20.515739    22.469956    4.7849658 
    5600    1.0010644   0.45321994    20.515546    22.470362    4.7843045 
    5700    1.0009892   0.45336466    20.515979    22.470827    4.7772252 
    5800    1.0012625   0.45373451    20.515842     22.47147    4.7838542 
    5900    1.0014596   0.45352229    20.515967    22.471678    4.7839645 
    6000    1.0009664   0.45469944    20.515548    22.471696    4.7855006 
    6100    1.0017128   0.45305613    20.515616    22.471241    4.7889682 
    6200    1.0013632   0.45485357    20.514918    22.471816     4.796705 
    6300    1.0014348   0.45397878    20.515494    22.471624    4.7971866 
    6400     1.001383   0.45371891    20.516092    22.471885    4.7874113 
    6500    1.0016883   0.45355222    20.515909    22.471993    4.7915927 
    6600    1.0014753   0.45385052    20.515546    22.471609    4.8002391 
    6700    1.0008108   0.45325834    20.516525    22.470999    4.7982302 
    6800    1.0012843   0.45405958    20.514902    22.470887    4.7908328 
    6900    1.0003949   0.45338225    20.516348    22.470322    4.7927462 
    7000    1.0007251   0.45372467    20.516161    22.470973    4.7900195 
    7100    1.0006288   0.45349386    20.516256    22.470692    4.8019502 
    7200    1.0002148   0.45415024    20.516542    22.471014    4.7969576 
    7300    1.0014282   0.45335659    20.515288    22.470787    4.7911481 
    7400    1.0012796   0.45411244    20.515352    22.471383    4.7975328 
    7500    1.0012442   0.45362123    20.515935    22.471422    4.7876615 
    7600    1.0007288   0.45300952    20.516628     22.47073    4.7911433 
    7700    1.0009391   0.45375106    20.516509    22.471668    4.7803442 
    7800    1.0017486    0.4535362    20.515564    22.471722    4.7918057 
    7900    1.0010549   0.45390998    20.516026    22.471518    4.7899755 
    8000    1.0016214   0.45447502    20.515248    22.472155    4.8141947 
    8100    1.0008762   0.45452352    20.516298    22.472135    4.7969592 
    8200    1.0004565   0.45515559    20.516212    22.472052    4.7957782 
    8300    1.0006774    0.4545445    20.515714    22.471273    4.8019997 
    8400    1.0009503   0.45424666    20.514874    22.470545    4.7955213 
    8500    1.0003514   0.45401603      20.5155    22.470043    4.7924682 
    8600    1.0006603   0.45354344    20.515385    22.469918    4.7996337 
    8700    1.0003839   0.45344828    20.514975    22.468998    4.7875602 
    8800   0.99981485   0.45347951    20.515879     22.46908    4.7910277 
    8900     1.000597   0.45318884     20.51469    22.468774    4.7831443 
    9000    1.0008471   0.45350787    20.514549    22.469326    4.7949289 
    9100    1.0004094   0.45347385    20.516081    22.470168     4.791824 
    9200    1.0003699   0.45358785    20.516079    22.470221    4.7982059 
    9300    1.0000023   0.45328252     20.51697    22.470255    4.7960771 
    9400    1.0004335   0.45359723    20.515277    22.469524     4.797085 
    9500    1.0010341   0.45277309     20.51592    22.470243    4.7852555 
    9600    1.0009006   0.45345307    20.515439    22.470242    4.7819025 
    9700    1.0007887   0.45365467    20.515404    22.470241     4.783307 
    9800    1.0006665   0.45304996    20.516001     22.47005    4.7822504 
    9900    1.0003147   0.45387471    20.515655    22.470001    4.7968772 
   10000    1.0002885   0.45355127    20.516465    22.470448    4.7912273 
Loop time of 206.987 on 32 procs for 10000 steps with 2048000 atoms

Performance: 50090.084 tau/day, 48.312 timesteps/s
98.7% CPU use with 32 MPI tasks x 1 OpenMP threads

MPI task timing breakdown:
Section |  min time  |  avg time  |  max time  |%varavg| %total
---------------------------------------------------------------
Pair    | 48.528     | 48.904     | 49.291     |   2.9 | 23.63
Bond    | 9.9571     | 10.273     | 10.828     |   6.5 |  4.96
Neigh   | 45.735     | 45.849     | 45.952     |   0.8 | 22.15
Comm    | 51.323     | 52.333     | 53.404     |   7.3 | 25.28
Output  | 0.027361   | 0.030656   | 0.033464   |   0.8 |  0.01
Modify  | 39.019     | 39.533     | 40.203     |   4.3 | 19.10
Other   |            | 10.06      |            |       |  4.86

Nlocal:          64000 ave       64092 max       63853 min
Histogram: 1 0 0 4 2 7 7 3 7 1
Nghost:        15557.4 ave       15665 max       15433 min
Histogram: 1 2 1 2 6 10 3 2 2 3
Neighs:         374757 ave      375764 max      372821 min
Histogram: 1 0 0 1 2 6 8 8 3 3

Total # of neighbors = 11992239
Ave neighs/atom = 5.8555854
Ave special neighs/atom = 1.98
Neighbor list builds = 2959
Dangerous builds = 0
Total wall time: 0:03:27
Intel(R) VTune(TM) Profiler 2022.2.0 collection completed successfully. Use the "aps --report /home/ubuntu/lammps/bench/aps_result_20220703" command to generate textual and HTML reports for the profiling session.
