LAMMPS (7 Jan 2022)
  using 1 OpenMP thread(s) per MPI task
Reading data file ...
  orthogonal box = (0 0 0) to (40 20 37.2886)
  2 by 1 by 2 MPI processor grid
  reading atoms ...
  32000 atoms
  reading velocities ...
  32000 velocities
  read_data CPU = 0.117 seconds
912 atoms in group bottom
31088 atoms in group active
  generated 0 of 1 mixed pair_coeff terms from geometric mixing rule
Neighbor list info ...
  update every 1 steps, delay 0 steps, check yes
  max neighbors/atom: 2000, page size: 100000
  master list distance cutoff = 1.1
  ghost atom cutoff = 1.1
  binsize = 0.55, bins = 73 37 68
  1 neighbor lists, perpetual/occasional/extra = 1 0 0
  (1) pair gran/hooke/history, perpetual
      attributes: half, newton off, size, history
      pair build: half/size/bin/newtoff
      stencil: full/bin/3d
      bin: standard
Setting up Verlet run ...
  Unit style    : lj
  Current step  : 0
  Time step     : 0.0001
Per MPI rank memory allocation (min/avg/max) = 10.59 | 10.59 | 10.6 Mbytes
Step Atoms KinEng c_1 Volume 
       0    32000    784139.13    1601.1263    29833.783 
     100    32000    784292.08    1571.0968    29834.707 
     200    32000    784422.71    1573.8634     29836.23 
     300    32000    784563.48    1580.4742    29837.727 
     400    32000    784708.17    1572.2381     29839.15 
     500    32000    784831.77    1564.0479    29840.694 
     600    32000    784971.37    1564.4511    29842.232 
     700    32000     785128.6    1552.4596    29843.695 
     800    32000    785290.26    1555.2209    29845.083 
     900    32000    785460.68    1545.8818    29846.397 
    1000    32000    785572.21    1539.8672    29847.635 
    1100    32000    785702.57    1533.8018    29848.799 
    1200    32000    785822.06    1545.9335    29849.888 
    1300    32000    785929.63    1549.9353    29850.902 
    1400    32000    786011.56    1552.8199    29851.841 
    1500    32000    786107.94    1566.1477    29852.706 
    1600    32000    786190.87    1573.3323    29853.496 
    1700    32000     786268.8    1592.7949    29854.211 
    1800    32000    786324.94    1606.0429    29854.646 
    1900    32000    786375.84    1614.3405    29855.236 
    2000    32000    786433.32    1618.8655    29855.751 
    2100    32000    786487.22    1636.6884    29856.192 
    2200    32000    786552.82    1640.6584    29856.558 
    2300    32000    786614.66    1639.1746    29856.849 
    2400    32000    786690.16    1633.1779    29857.065 
    2500    32000    786750.18    1631.7458    29857.206 
    2600    32000    786796.46    1639.3144    29857.273 
    2700    32000     786838.1    1646.8994    29857.318 
    2800    32000    786859.62    1647.0385    29857.485 
    2900    32000    786892.31    1653.4086    29857.576 
    3000    32000    786909.23    1658.7749    29857.593 
    3100    32000    786943.78    1667.7026    29857.535 
    3200    32000     786987.1    1667.3375    29857.403 
    3300    32000    787053.16    1673.0403    29857.195 
    3400    32000    787122.42    1667.2529    29856.916 
    3500    32000    787204.93    1660.8188    29856.571 
    3600    32000    787285.63    1657.9129    29856.156 
    3700    32000    787353.94    1643.0451    29855.664 
    3800    32000    787392.21    1655.5781    29855.089 
    3900    32000    787432.51    1651.1636    29854.664 
    4000    32000     787476.4    1657.3014    29853.965 
    4100    32000    787502.48    1651.9253    29853.311 
    4200    32000    787519.67    1657.6566    29853.343 
    4300    32000       787536    1653.4244    29853.419 
    4400    32000    787552.09    1653.7948    29853.421 
    4500    32000    787554.54    1663.9292    29853.347 
    4600    32000    787575.64    1676.9618    29853.199 
    4700    32000    787600.44    1673.2198    29852.976 
    4800    32000    787619.28    1678.2577    29852.678 
    4900    32000    787637.13    1686.8833    29852.305 
    5000    32000    787652.57    1700.1705    29851.858 
    5100    32000    787685.06    1711.0003    29851.335 
    5200    32000    787733.17    1714.4793    29850.738 
    5300    32000    787778.05    1715.4938    29850.066 
    5400    32000    787833.99    1714.2289    29849.335 
    5500    32000    787885.19    1722.2174    29848.532 
    5600    32000     787956.7    1712.6519    29847.638 
    5700    32000    788003.78    1724.9566     29846.67 
    5800    32000    788041.55    1730.2611    29845.983 
    5900    32000    788084.08    1740.0887     29844.89 
    6000    32000    788136.12    1741.9083    29843.722 
    6100    32000    788202.88    1749.6585    29842.618 
    6200    32000    788296.35    1740.0403    29841.872 
    6300    32000    788396.58    1722.0121    29841.199 
    6400    32000    788475.68    1712.9413    29840.523 
    6500    32000     788567.5    1713.8675     29839.76 
    6600    32000    788660.79    1705.6599     29839.14 
    6700    32000    788762.02     1692.184     29838.76 
    6800    32000    788884.02    1677.2353    29838.306 
    6900    32000    788994.09    1661.6041    29837.776 
    7000    32000    789086.63    1654.0864    29837.172 
    7100    32000    789180.03    1646.8174    29836.492 
    7200    32000     789258.3    1657.7151    29835.738 
    7300    32000    789342.48    1647.3833     29834.91 
    7400    32000    789406.76    1652.8045    29834.006 
    7500    32000    789468.27    1657.6872    29833.028 
    7600    32000    789518.82      1664.92    29831.974 
    7700    32000    789571.58     1660.127    29830.846 
    7800    32000     789625.8    1659.4033    29829.643 
    7900    32000    789662.55    1654.8341    29828.366 
    8000    32000    789681.07    1657.6213    29827.013 
    8100    32000    789689.08    1662.4688     29826.07 
    8200    32000     789696.7    1670.2119    29824.593 
    8300    32000    789707.64    1679.0005    29823.041 
    8400    32000     789720.2    1691.6458    29821.414 
    8500    32000    789727.63    1689.7729    29819.712 
    8600    32000    789746.05    1694.7195    29817.936 
    8700    32000    789757.16    1696.5588    29816.085 
    8800    32000     789770.2    1689.2296    29814.195 
    8900    32000    789763.71     1691.189    29814.258 
    9000    32000    789761.05    1689.4753    29814.246 
    9100    32000    789739.85    1693.1297    29814.159 
    9200    32000    789692.62    1705.8161    29814.002 
    9300    32000    789662.36    1710.9183    29813.775 
    9400    32000    789610.06     1716.335    29813.478 
    9500    32000    789556.52    1722.0147     29813.11 
    9600    32000    789486.07    1731.6543    29812.672 
    9700    32000    789447.62     1738.159    29812.163 
    9800    32000    789399.04    1746.1871    29811.565 
    9900    32000    789359.17    1743.0312    29810.892 
   10000    32000    789312.49     1749.057    29810.145 
Loop time of 8.56921 on 4 procs for 10000 steps with 32000 atoms

Performance: 10082.608 tau/day, 1166.969 timesteps/s
99.3% CPU use with 4 MPI tasks x 1 OpenMP threads

MPI task timing breakdown:
Section |  min time  |  avg time  |  max time  |%varavg| %total
---------------------------------------------------------------
Pair    | 3.619      | 4.0772     | 4.5951     |  22.7 | 47.58
Neigh   | 1.3453     | 1.3692     | 1.3942     |   1.5 | 15.98
Comm    | 0.67981    | 0.71377    | 0.74795    |   3.8 |  8.33
Output  | 0.0048988  | 0.010127   | 0.014123   |   4.1 |  0.12
Modify  | 1.4109     | 1.4308     | 1.4652     |   1.8 | 16.70
Other   |            | 0.9681     |            |       | 11.30

Nlocal:           8000 ave        8025 max        7984 min
Histogram: 2 0 0 0 0 1 0 0 0 1
Nghost:        2440.75 ave        2457 max        2425 min
Histogram: 1 1 0 0 0 0 0 0 1 1
Neighs:        29512.2 ave       30193 max       28820 min
Histogram: 2 0 0 0 0 0 0 0 0 2

Total # of neighbors = 118049
Ave neighs/atom = 3.6890313
Neighbor list builds = 295
Dangerous builds = 0
Total wall time: 0:00:08
Intel(R) VTune(TM) Profiler 2022.2.0 collection completed successfully. Use the "aps --report /home/ubuntu/lammps/bench/aps_result_20220703" command to generate textual and HTML reports for the profiling session.
