LAMMPS (7 Jan 2022)
  using 1 OpenMP thread(s) per MPI task
Reading data file ...
  orthogonal box = (-16.796 -16.796 -16.796) to (16.796 16.796 16.796)
  2 by 2 by 4 MPI processor grid
  reading atoms ...
  32000 atoms
  reading velocities ...
  32000 velocities
  scanning bonds ...
  1 = max bonds/atom
  reading bonds ...
  31680 bonds
Finding 1-2 1-3 1-4 neighbors ...
  special bond factors lj:    0        1        1       
  special bond factors coul:  0        1        1       
     2 = max # of 1-2 neighbors
     2 = max # of special neighbors
  special bonds CPU = 0.003 seconds
  read_data CPU = 0.107 seconds
Replicating atoms ...
  orthogonal box = (-16.796 -16.796 -16.796) to (83.98 83.98 83.98)
  2 by 2 by 4 MPI processor grid
  864000 atoms
  855360 bonds
Finding 1-2 1-3 1-4 neighbors ...
  special bond factors lj:    0        1        1       
  special bond factors coul:  0        1        1       
     2 = max # of 1-2 neighbors
     2 = max # of special neighbors
  special bonds CPU = 0.017 seconds
  replicate CPU = 0.044 seconds
----------------------------------------------------------
Using INTEL Package without Coprocessor.
Compiler: Intel Classic C++ 20.21.5 / Intel(R) C++ g++ 9.3 mode
SIMD compiler directives: Enabled
Precision: double
----------------------------------------------------------
  generated 0 of 0 mixed pair_coeff terms from geometric mixing rule
Neighbor list info ...
  update every 1 steps, delay 1 steps, check yes
  max neighbors/atom: 2000, page size: 100000
  master list distance cutoff = 1.52
  ghost atom cutoff = 1.52
  binsize = 0.76, bins = 133 133 133
  1 neighbor lists, perpetual/occasional/extra = 1 0 0
  (1) pair lj/cut/intel, perpetual
      attributes: half, newton on, intel
      pair build: half/bin/newton/intel
      stencil: half/bin/3d
      bin: intel
Setting up Verlet run ...
  Unit style    : lj
  Current step  : 0
  Time step     : 0.012
WARNING: Communication cutoff 1.52 is shorter than a bond length based estimate of 1.855. This may lead to errors. (../comm.cpp:723)
Per MPI rank memory allocation (min/avg/max) = 481.2 | 481.9 | 482.6 Mbytes
Step Temp E_pair E_mol TotEng Press 
       0   0.97026852   0.44484087    20.494523    22.394765    4.6721833 
     100    0.9737816   0.44187909    20.502361    22.404911    4.6894591 
Loop time of 1.60531 on 16 procs for 100 steps with 864000 atoms

Performance: 64585.634 tau/day, 62.293 timesteps/s
99.0% CPU use with 16 MPI tasks x 1 OpenMP threads

MPI task timing breakdown:
Section |  min time  |  avg time  |  max time  |%varavg| %total
---------------------------------------------------------------
Pair    | 0.32732    | 0.33244    | 0.33635    |   0.4 | 20.71
Bond    | 0.090446   | 0.093217   | 0.094854   |   0.4 |  5.81
Neigh   | 0.40033    | 0.40209    | 0.40331    |   0.1 | 25.05
Comm    | 0.32799    | 0.33508    | 0.34401    |   0.8 | 20.87
Output  | 0.00016835 | 0.00024224 | 0.00090558 |   0.0 |  0.02
Modify  | 0.37198    | 0.37524    | 0.38069    |   0.4 | 23.37
Other   |            | 0.067      |            |       |  4.17

Nlocal:          54000 ave       54108 max       53843 min
Histogram: 1 0 1 1 4 2 1 2 1 3
Nghost:        14053.9 ave       14145 max       13948 min
Histogram: 1 1 3 1 2 1 1 3 0 3
Neighs:         316333 ave      317429 max      314684 min
Histogram: 1 0 2 2 1 3 0 2 2 3

Total # of neighbors = 5061335
Ave neighs/atom = 5.8580266
Ave special neighs/atom = 1.98
Neighbor list builds = 25
Dangerous builds = 0
Total wall time: 0:00:01
Intel(R) VTune(TM) Profiler 2022.2.0 collection completed successfully. Use the "aps --report /home/ubuntu/lammps/bench/aps_result_20220601" command to generate textual and HTML reports for the profiling session.
