LAMMPS (7 Jan 2022)
  using 1 OpenMP thread(s) per MPI task
Reading data file ...
  orthogonal box = (0 0 0) to (40 20 37.2886)
  2 by 2 by 2 MPI processor grid
  reading atoms ...
  32000 atoms
  reading velocities ...
  32000 velocities
  read_data CPU = 0.113 seconds
Replicating atoms ...
  orthogonal box = (0 0 0) to (120 60 37.292229)
  4 by 2 by 1 MPI processor grid
  288000 atoms
  replicate CPU = 0.023 seconds
8208 atoms in group bottom
279792 atoms in group active
  generated 0 of 1 mixed pair_coeff terms from geometric mixing rule
Neighbor list info ...
  update every 1 steps, delay 0 steps, check yes
  max neighbors/atom: 2000, page size: 100000
  master list distance cutoff = 1.1
  ghost atom cutoff = 1.1
  binsize = 0.55, bins = 219 110 68
  1 neighbor lists, perpetual/occasional/extra = 1 0 0
  (1) pair gran/hooke/history, perpetual
      attributes: half, newton off, size, history
      pair build: half/size/bin/newtoff
      stencil: full/bin/3d
      bin: standard
Setting up Verlet run ...
  Unit style    : lj
  Current step  : 0
  Time step     : 0.0001
Per MPI rank memory allocation (min/avg/max) = 23.78 | 23.78 | 23.78 Mbytes
Step Atoms KinEng c_1 Volume 
       0   288000    7057252.2    14410.137    268504.05 
     100   288000    7058628.7    14139.871    268512.37 
     200   288000    7059804.4    14164.771    268526.08 
     300   288000    7061071.3    14224.268    268539.55 
     400   288000    7062373.5    14150.143    268552.35 
     500   288000    7063485.9    14076.431    268566.25 
     600   288000    7064742.3     14080.06    268580.09 
     700   288000    7066157.4    13972.136    268593.26 
     800   288000    7067612.3    13996.988    268605.75 
     900   288000    7069146.1    13912.936    268617.57 
    1000   288000    7070149.9    13858.805    268628.72 
    1100   288000    7071323.1    13804.216    268639.19 
    1200   288000    7072398.5    13913.402    268648.99 
    1300   288000    7073366.7    13949.418    268658.12 
    1400   288000    7074104.1    13975.379    268666.58 
    1500   288000    7074971.5    14095.327    268674.36 
    1600   288000    7075717.8    14160.003    268681.46 
    1700   288000    7076419.2    14335.129     268687.9 
    1800   288000    7076924.5    14454.309    268691.81 
    1900   288000      7077383    14528.882    268697.13 
    2000   288000    7077900.2    14569.618    268701.76 
    2100   288000    7078385.6    14730.173    268705.73 
    2200   288000      7078974    14766.138    268709.02 
    2300   288000    7079530.8    14751.581    268711.64 
    2400   288000    7080208.1    14702.544    268713.59 
    2500   288000    7080752.5    14691.152    268714.86 
    2600   288000    7081160.8    14753.465    268715.46 
    2700   288000    7081506.4    14844.489    268715.87 
    2800   288000    7081710.4     14859.51    268717.37 
    2900   288000    7081977.3    14884.659    268718.19 
    3000   288000    7082090.5    14911.156    268718.34 
    3100   288000    7082376.7    14999.651    268717.82 
    3200   288000    7082695.5    15096.161    268716.63 
    3300   288000    7083322.1    15064.799    268714.76 
    3400   288000      7083952    15018.951    268712.25 
    3500   288000    7084612.3    15002.804    268709.14 
    3600   288000    7085225.6    14950.026     268705.4 
    3700   288000    7085777.8    14931.652    268701.03 
    3800   288000    7086254.2    14923.355    268695.86 
    3900   288000      7086697    14959.758    268690.59 
    4000   288000    7087097.8    14928.396    268693.36 
    4100   288000    7087374.2     14920.53    268696.95 
    4200   288000    7087561.5    14892.979    268699.87 
    4300   288000    7087731.2     14865.29    268702.12 
    4400   288000    7087819.2    14874.422     268703.7 
    4500   288000    7087862.7    14953.996     268704.6 
    4600   288000    7087963.9     15044.54    268704.83 
    4700   288000    7088061.4    15089.717    268704.38 
    4800   288000    7088150.2    15123.833    268703.26 
    4900   288000    7088310.6    15187.477    268701.47 
    5000   288000    7088508.8    15252.177    268699.01 
    5100   288000    7088712.7    15342.632    268695.87 
    5200   288000    7088993.6    15404.587    268692.06 
    5300   288000    7089323.5    15499.768    268687.57 
    5400   288000    7089725.4    15563.518    268682.52 
    5500   288000    7090244.3    15593.622    268676.89 
    5600   288000      7090755    15597.022    268670.61 
    5700   288000    7091256.3    15574.185    268663.71 
    5800   288000    7091808.6    15538.104    268656.17 
    5900   288000    7092420.8    15522.406    268647.99 
    6000   288000    7093107.5    15450.444    268639.19 
    6100   288000    7093766.3    15427.294    268629.74 
    6200   288000      7094552    15366.343    268619.67 
    6300   288000    7095244.1    15351.985     268611.4 
    6400   288000    7095905.1    15322.173    268607.34 
    6500   288000    7096598.3    15303.393    268602.65 
    6600   288000    7097397.9    15229.325    268597.32 
    6700   288000    7098231.3     15170.83    268591.36 
    6800   288000    7099079.2    15089.204    268584.76 
    6900   288000    7099930.7    15045.369    268577.53 
    7000   288000    7100789.1    14987.672    268569.41 
    7100   288000    7101643.6    14945.255    268567.05 
    7200   288000    7102381.6    14879.511    268567.52 
    7300   288000    7103070.7    14875.476    268567.31 
    7400   288000    7103751.4    14841.536    268566.43 
    7500   288000    7104307.5    14848.629    268564.88 
    7600   288000    7104857.3    14841.278    268562.66 
    7700   288000    7105398.3      14861.5    268559.76 
    7800   288000    7105911.5    14885.584    268556.31 
    7900   288000    7106369.3    14892.379    268552.22 
    8000   288000    7106800.6    14891.542    268547.49 
    8100   288000    7107207.7    14917.126    268542.13 
    8200   288000    7107584.1    14910.916    268536.14 
    8300   288000    7107885.8    14943.772    268529.51 
    8400   288000    7108197.3    14937.688    268522.25 
    8500   288000    7108388.5    14976.405    268514.36 
    8600   288000    7108548.5    15019.358    268505.83 
    8700   288000    7108724.6    15065.167    268496.66 
    8800   288000    7108775.2    15117.279    268486.86 
    8900   288000    7108749.2    15178.435    268476.43 
    9000   288000    7108681.3    15212.476    268465.36 
    9100   288000    7108525.4    15247.897    268453.66 
    9200   288000    7108369.8    15318.291    268441.33 
    9300   288000    7108192.6    15339.601    268428.36 
    9400   288000    7107951.2    15336.299    268414.75 
    9500   288000    7107596.2    15383.965    268400.52 
    9600   288000    7107261.6    15437.173    268385.64 
    9700   288000    7106946.4    15510.082    268370.14 
    9800   288000    7106675.7    15505.586    268364.98 
    9900   288000    7106394.5    15542.958    268360.72 
   10000   288000    7106114.4    15583.419    268372.25 
Loop time of 35.8132 on 8 procs for 10000 steps with 288000 atoms

Performance: 2412.522 tau/day, 279.227 timesteps/s
99.8% CPU use with 8 MPI tasks x 1 OpenMP threads

MPI task timing breakdown:
Section |  min time  |  avg time  |  max time  |%varavg| %total
---------------------------------------------------------------
Pair    | 18.373     | 18.668     | 19.011     |   4.7 | 52.13
Neigh   | 5.6314     | 5.7164     | 5.7827     |   1.8 | 15.96
Comm    | 1.9785     | 2.0236     | 2.0724     |   2.8 |  5.65
Output  | 0.018345   | 0.023494   | 0.027171   |   2.0 |  0.07
Modify  | 6.4076     | 6.5941     | 6.8866     |   6.7 | 18.41
Other   |            | 2.787      |            |       |  7.78

Nlocal:          36000 ave       36008 max       35994 min
Histogram: 2 0 2 0 0 1 2 0 0 1
Nghost:        5478.38 ave        5493 max        5465 min
Histogram: 1 0 3 1 0 0 0 0 2 1
Neighs:         129063 ave      129175 max      128964 min
Histogram: 1 1 0 3 0 1 0 0 0 2

Total # of neighbors = 1032507
Ave neighs/atom = 3.5850937
Neighbor list builds = 297
Dangerous builds = 0
Total wall time: 0:00:36
Intel(R) VTune(TM) Profiler 2022.2.0 collection completed successfully. Use the "aps --report /home/ubuntu/lammps/bench/aps_result_20220703" command to generate textual and HTML reports for the profiling session.
