LAMMPS (7 Jan 2022)
  using 1 OpenMP thread(s) per MPI task
New timer settings: style=full  mode=nosync  timeout=off
Reading data file ...
  orthogonal box = (0 0 0) to (40 20 37.2886)
  4 by 2 by 2 MPI processor grid
  reading atoms ...
  32000 atoms
  reading velocities ...
  32000 velocities
  read_data CPU = 0.092 seconds
912 atoms in group bottom
31088 atoms in group active
  generated 0 of 1 mixed pair_coeff terms from geometric mixing rule
Neighbor list info ...
  update every 1 steps, delay 0 steps, check yes
  max neighbors/atom: 2000, page size: 100000
  master list distance cutoff = 1.1
  ghost atom cutoff = 1.1
  binsize = 0.55, bins = 73 37 68
  1 neighbor lists, perpetual/occasional/extra = 1 0 0
  (1) pair gran/hooke/history, perpetual
      attributes: half, newton off, size, history
      pair build: half/size/bin/newtoff
      stencil: full/bin/3d
      bin: standard
Setting up Verlet run ...
  Unit style    : lj
  Current step  : 0
  Time step     : 0.0001
Per MPI rank memory allocation (min/avg/max) = 10.17 | 10.17 | 10.18 Mbytes
Step Atoms KinEng c_1 Volume 
       0    32000    784139.13    1601.1263    29833.783 
     100    32000    784292.08    1571.0968    29834.707 
Loop time of 0.0264216 on 16 procs for 100 steps with 32000 atoms

Performance: 32700.578 tau/day, 3784.789 timesteps/s
97.2% CPU use with 16 MPI tasks x 1 OpenMP threads

MPI task timing breakdown:
Section |  min time  |  avg time  |  max time  |%varavg|  %CPU | %total
-----------------------------------------------------------------------
Pair    | 0.0086493  | 0.009635   | 0.010716   |   0.8 |  97.8 | 36.47
Neigh   | 0.0027711  | 0.0028143  | 0.0028619  |   0.1 |  96.9 | 10.65
Comm    | 0.006198   | 0.0065616  | 0.0070196  |   0.3 |  96.2 | 24.83
Output  | 3.5729e-05 | 4.8404e-05 | 5.8832e-05 |   0.0 |  99.4 |  0.18
Modify  | 0.004109   | 0.0041764  | 0.0042478  |   0.1 |  97.5 | 15.81
Other   |            | 0.003186   |            |       |       | 12.06

Nlocal:           2000 ave        2005 max        1997 min
Histogram: 4 0 8 0 0 0 0 0 0 4
Nghost:        1152.25 ave        1160 max        1146 min
Histogram: 8 0 0 0 0 0 0 4 0 4
Neighs:        7707.75 ave        7990 max        7415 min
Histogram: 8 0 0 0 0 0 0 0 0 8

Total # of neighbors = 123324
Ave neighs/atom = 3.853875
Neighbor list builds = 2
Dangerous builds = 0
Total wall time: 0:00:00
Intel(R) VTune(TM) Profiler 2022.2.0 collection completed successfully. Use the "aps --report /home/ubuntu/lammps/bench/aps_result_20220519" command to generate textual and HTML reports for the profiling session.
