LAMMPS (7 Jan 2022)
  using 1 OpenMP thread(s) per MPI task
Reading data file ...
  orthogonal box = (-16.796 -16.796 -16.796) to (16.796 16.796 16.796)
  1 by 1 by 2 MPI processor grid
  reading atoms ...
  32000 atoms
  reading velocities ...
  32000 velocities
  scanning bonds ...
  1 = max bonds/atom
  reading bonds ...
  31680 bonds
Finding 1-2 1-3 1-4 neighbors ...
  special bond factors lj:    0        1        1       
  special bond factors coul:  0        1        1       
     2 = max # of 1-2 neighbors
     2 = max # of special neighbors
  special bonds CPU = 0.003 seconds
  read_data CPU = 0.196 seconds
Replicating atoms ...
  orthogonal box = (-16.796 -16.796 -16.796) to (83.98 83.98 83.98)
  1 by 1 by 2 MPI processor grid
  864000 atoms
  855360 bonds
Finding 1-2 1-3 1-4 neighbors ...
  special bond factors lj:    0        1        1       
  special bond factors coul:  0        1        1       
     2 = max # of 1-2 neighbors
     2 = max # of special neighbors
  special bonds CPU = 0.139 seconds
  replicate CPU = 0.241 seconds
----------------------------------------------------------
Using INTEL Package without Coprocessor.
Compiler: Intel Classic C++ 20.21.5 / Intel(R) C++ g++ 9.3 mode
SIMD compiler directives: Enabled
Precision: mixed
----------------------------------------------------------
  generated 0 of 0 mixed pair_coeff terms from geometric mixing rule
Neighbor list info ...
  update every 1 steps, delay 1 steps, check yes
  max neighbors/atom: 2000, page size: 100000
  master list distance cutoff = 1.52
  ghost atom cutoff = 1.52
  binsize = 0.76, bins = 133 133 133
  1 neighbor lists, perpetual/occasional/extra = 1 0 0
  (1) pair lj/cut/intel, perpetual
      attributes: half, newton on, intel
      pair build: half/bin/newton/intel
      stencil: half/bin/3d
      bin: intel
Setting up Verlet run ...
  Unit style    : lj
  Current step  : 0
  Time step     : 0.012
WARNING: Communication cutoff 1.52 is shorter than a bond length based estimate of 1.855. This may lead to errors. (../comm.cpp:723)
Per MPI rank memory allocation (min/avg/max) = 3799 | 3801 | 3802 Mbytes
Step Temp E_pair E_mol TotEng Press 
       0   0.97026852   0.44484092    20.494523    22.394765    4.6721839 
     100   0.97137539   0.44317617    20.502786    22.403024    4.7062897 
Loop time of 20.7702 on 2 procs for 100 steps with 864000 atoms

Performance: 4991.765 tau/day, 4.815 timesteps/s
68.0% CPU use with 2 MPI tasks x 1 OpenMP threads

MPI task timing breakdown:
Section |  min time  |  avg time  |  max time  |%varavg| %total
---------------------------------------------------------------
Pair    | 2.9538     | 4.3992     | 5.8447     |  68.9 | 21.18
Bond    | 0.52202    | 0.80122    | 1.0804     |  31.2 |  3.86
Neigh   | 5.0519     | 5.1077     | 5.1636     |   2.5 | 24.59
Comm    | 3.6903     | 5.4616     | 7.233      |  75.8 | 26.30
Output  | 0.00099658 | 0.017029   | 0.033061   |  12.3 |  0.08
Modify  | 2.2816     | 3.4019     | 4.5222     |  60.7 | 16.38
Other   |            | 1.581      |            |       |  7.61

Nlocal:         432000 ave      432110 max      431890 min
Histogram: 1 0 0 0 0 0 0 0 0 1
Nghost:          54081 ave       54105 max       54057 min
Histogram: 1 0 0 0 0 0 0 0 0 1
Neighs:     2.5305e+06 ave 2.53201e+06 max 2.52898e+06 min
Histogram: 1 0 0 0 0 0 0 0 0 1

Total # of neighbors = 5060991
Ave neighs/atom = 5.8576285
Ave special neighs/atom = 1.98
Neighbor list builds = 26
Dangerous builds = 0
Total wall time: 0:00:21
Intel(R) VTune(TM) Profiler 2022.2.0 collection completed successfully. Use the "aps --report /home/ubuntu/lammps/bench/aps_result_20220526" command to generate textual and HTML reports for the profiling session.
