LAMMPS (7 Jan 2022)
  using 1 OpenMP thread(s) per MPI task
Reading data file ...
  orthogonal box = (-16.796 -16.796 -16.796) to (16.796 16.796 16.796)
  2 by 4 by 4 MPI processor grid
  reading atoms ...
  32000 atoms
  reading velocities ...
  32000 velocities
  scanning bonds ...
  1 = max bonds/atom
  reading bonds ...
  31680 bonds
Finding 1-2 1-3 1-4 neighbors ...
  special bond factors lj:    0        1        1       
  special bond factors coul:  0        1        1       
     2 = max # of 1-2 neighbors
     2 = max # of special neighbors
  special bonds CPU = 0.002 seconds
  read_data CPU = 0.125 seconds
Replicating atoms ...
  orthogonal box = (-16.796 -16.796 -16.796) to (50.388 50.388 50.388)
  2 by 4 by 4 MPI processor grid
  256000 atoms
  253440 bonds
Finding 1-2 1-3 1-4 neighbors ...
  special bond factors lj:    0        1        1       
  special bond factors coul:  0        1        1       
     2 = max # of 1-2 neighbors
     2 = max # of special neighbors
  special bonds CPU = 0.004 seconds
  replicate CPU = 0.013 seconds
----------------------------------------------------------
Using INTEL Package without Coprocessor.
Compiler: Intel Classic C++ 20.21.5 / Intel(R) C++ g++ 9.3 mode
SIMD compiler directives: Enabled
Precision: mixed
----------------------------------------------------------
  generated 0 of 0 mixed pair_coeff terms from geometric mixing rule
Neighbor list info ...
  update every 1 steps, delay 1 steps, check yes
  max neighbors/atom: 2000, page size: 100000
  master list distance cutoff = 1.52
  ghost atom cutoff = 1.52
  binsize = 0.76, bins = 89 89 89
  1 neighbor lists, perpetual/occasional/extra = 1 0 0
  (1) pair lj/cut/intel, perpetual
      attributes: half, newton on, intel
      pair build: half/bin/newton/intel
      stencil: half/bin/3d
      bin: intel
Setting up Verlet run ...
  Unit style    : lj
  Current step  : 0
  Time step     : 0.012
WARNING: Communication cutoff 1.52 is shorter than a bond length based estimate of 1.855. This may lead to errors. (../comm.cpp:723)
Per MPI rank memory allocation (min/avg/max) = 72.89 | 73.01 | 73.19 Mbytes
Step Temp E_pair E_mol TotEng Press 
       0   0.97027119   0.44484088    20.494523    22.394765    4.6721834 
     100    0.9757858   0.44055964    20.501883    22.406115    4.6766806 
     200   0.97916484   0.44190801     20.50298    22.413629    4.7130863 
     300   0.98144148   0.44298423    20.504153    22.419294    4.7047744 
     400   0.98409307   0.44460303    20.504558    22.425295    4.7076425 
     500   0.98691621   0.44741607    20.505661    22.433446    4.7260715 
     600   0.98845231   0.44905674    20.506864    22.438593    4.7443372 
     700   0.99042049   0.44785259    20.508838    22.442315    4.7701096 
     800   0.99061327   0.44988432    20.509896    22.445695    4.7706535 
     900   0.99325963   0.44706506    20.510319    22.447268    4.7693017 
    1000   0.99261478   0.45057034    20.509836    22.449323    4.7401312 
    1100   0.99469001   0.44980485    20.511936     22.45377    4.7605644 
    1200   0.99478842   0.45136888    20.513333    22.456879    4.7754787 
    1300   0.99627047   0.45324377    20.512361    22.460005    4.7949487 
    1400   0.99725145   0.45332933    20.512727    22.461927    4.8019483 
    1500   0.99837825    0.4540747    20.512453     22.46409    4.7540881 
    1600    0.9997078   0.44999554      20.5124    22.461951    4.7917499 
    1700   0.99803286    0.4523854     20.51434    22.463769    4.7552546 
    1800   0.99951104   0.45178571    20.514369    22.465416    4.7592324 
    1900   0.99962079   0.45339245    20.514571    22.467388    4.7852555 
    2000   0.99887882   0.45372641    20.515023    22.467062    4.8088162 
    2100    0.9996426   0.45285038     20.51422    22.466528    4.7540343 
    2200    1.0022663   0.45316652     20.51338     22.46994     4.786272 
    2300   0.99797919   0.45325367    20.517504    22.467721    4.8242909 
    2400     1.000659   0.45083557    20.515421    22.467239     4.777784 
    2500    1.0005299   0.45257694    20.514804     22.46817    4.8034365 
    2600   0.99894916   0.45335799    20.516053    22.467829    4.8085791 
    2700   0.99875266   0.45194761    20.514986    22.465057    4.7628468 
    2800    1.0006147   0.45415199    20.513214    22.468283    4.8273889 
    2900    1.0008294   0.45558803    20.514505    22.471331      4.80326 
    3000   0.99964233   0.45387505    20.517771    22.471104    4.7704322 
    3100    1.0005549   0.45260301    20.515778    22.469207    4.7759897 
    3200    1.0010927   0.45386915    20.514853    22.470355    4.7793463 
    3300    1.0015568   0.45472891    20.514634    22.471692    4.7733119 
    3400    1.0012068   0.45424545    20.515293    22.471343     4.782371 
    3500    1.0016789    0.4538151    20.515561    22.471888    4.7971655 
    3600    1.0013584   0.45458168    20.515266     22.47188     4.785173 
    3700    1.0010475   0.45484105    20.516298    22.472705    4.8029209 
    3800    1.0005094   0.45483909    20.515482    22.471079    4.7774642 
    3900    1.0035234   0.45358705    20.512548    22.471414    4.7783418 
    4000    1.0032596   0.45389603     20.51431     22.47309    4.7943154 
    4100    1.0000929   0.45540049    20.516837    22.472371    4.8222021 
    4200    1.0001991    0.4522096    20.516649    22.469152    4.7847462 
    4300   0.99966624   0.45617134    20.515331    22.470996    4.8230578 
    4400    1.0004394   0.45324083    20.516964    22.470859    4.7941695 
    4500    1.0034361   0.45196679    20.516439    22.473554    4.7495013 
    4600    1.0019694    0.4542149    20.515426    22.472589    4.7952821 
    4700    1.0010456   0.45659776    20.515458    22.473618    4.8038832 
    4800    1.0007794   0.45221946    20.516004    22.469387    4.7663128 
    4900    1.0014399   0.45081202      20.5158    22.468766    4.7659805 
    5000    0.9996411   0.45450385    20.514997    22.468957     4.789831 
    5100    1.0000638   0.45293293    20.514728    22.467751    4.7940977 
    5200     1.000594   0.45201342    20.515836    22.468735    4.7952231 
    5300   0.99902238   0.45470198    20.514494    22.467724    4.8121499 
    5400    1.0015152   0.45317586    20.513646    22.469089    4.7988737 
    5500   0.99978724   0.45171295     20.51861    22.469998    4.8032308 
    5600    1.0008403   0.45271685    20.514885    22.468856    4.7878946 
    5700    1.0020075   0.45306517    20.514685    22.470756    4.7723427 
    5800    1.0011006     0.452852    20.518003      22.4725    4.8017482 
    5900    1.0026649   0.45506751    20.515722    22.474781    4.8136486 
    6000    1.0010264   0.45503157    20.519512    22.476078    4.7812331 
    6100     1.003259   0.45318155    20.515465    22.473529    4.7859821 
    6200    1.0029841   0.45363784    20.515389    22.473497     4.821135 
    6300    1.0006616   0.45456415    20.517229    22.472779    4.7851506 
    6400    1.0009878   0.45512608    20.515427    22.472029    4.8163432 
    6500    1.0019981   0.45467693    20.514016    22.471684    4.7757469 
    6600    1.0002476   0.45427723    20.517212    22.471855    4.7994234 
    6700    1.0010229    0.4525587     20.51476    22.468847    4.7633057 
    6800   0.99819761   0.45382987    20.518407    22.469527    4.8136738 
    6900   0.99912295   0.45190421    20.515583    22.466165    4.7907911 
    7000   0.99708681   0.45536133    20.517352    22.468338    4.7917567 
    7100   0.99905143   0.45281166    20.515192    22.466575    4.8032439 
    7200   0.99581796   0.45265988    20.517224    22.463605    4.7782144 
    7300   0.99749728   0.45368057     20.51417     22.46409    4.7711783 
    7400    1.0000101   0.45299034    20.516611    22.469611    4.7860908 
    7500   0.99799147   0.45287762    20.519083    22.468942    4.8203779 
    7600    1.0025363   0.45391996    20.513297    22.471016     4.783654 
    7700   0.99993473   0.45491064    20.514948    22.469755     4.828754 
    7800    1.0008304   0.45273165     20.51744    22.471411     4.790034 
    7900     1.001142   0.45379877    20.514478    22.469984    4.8027618 
    8000    0.9991047   0.45314598    20.515721    22.467518    4.7933142 
    8100   0.99940649   0.45284127    20.515488    22.467433    4.7854077 
    8200    1.0001641   0.45267791    20.514081    22.466999     4.770966 
    8300    1.0008498   0.45380107    20.513109    22.468179    4.7963706 
    8400    1.0007112   0.45185846    20.513921     22.46684    4.7793171 
    8500     1.000288   0.45343551    20.512896    22.466757      4.79197 
    8600   0.99963355   0.45381184    20.513283    22.466539     4.810021 
    8700    1.0002632   0.45257175    20.515175    22.468136    4.7657716 
    8800   0.99923325   0.45324989    20.514595    22.466688    4.7832324 
    8900   0.99801122   0.45160373    20.518066    22.466681    4.7773114 
    9000     1.000272   0.45258784    20.514134    22.467124    4.8034406 
    9100    1.0005031   0.45140952    20.516527    22.468686    4.8049734 
    9200    0.9984592   0.45427158    20.516399    22.468353    4.7740582 
    9300    1.0026086   0.45332971    20.513162    22.470399    4.7991294 
    9400      1.00043   0.45297579    20.517013    22.470628    4.7577613 
    9500    1.0031902   0.45347667    20.516568    22.474824    4.7893842 
    9600    1.0036654   0.45275386    20.516377    22.474623    4.8205786 
    9700    1.0039361   0.45435848    20.514191    22.474448    4.7806769 
    9800    1.0007539   0.45340821       20.518    22.472533    4.7750716 
    9900    1.0021902   0.45423235    20.515861    22.473372    4.7931153 
   10000    1.0023032   0.45349474    20.514755    22.471698     4.790823 
Loop time of 19.0856 on 32 procs for 10000 steps with 256000 atoms

Performance: 543237.042 tau/day, 523.955 timesteps/s
99.2% CPU use with 32 MPI tasks x 1 OpenMP threads

MPI task timing breakdown:
Section |  min time  |  avg time  |  max time  |%varavg| %total
---------------------------------------------------------------
Pair    | 5.2472     | 5.334      | 5.4528     |   2.0 | 27.95
Bond    | 0.85691    | 0.88216    | 0.89466    |   1.0 |  4.62
Neigh   | 4.9534     | 4.981      | 4.9967     |   0.5 | 26.10
Comm    | 2.9795     | 3.0997     | 3.267      |   3.6 | 16.24
Output  | 0.0070717  | 0.011856   | 0.018392   |   4.3 |  0.06
Modify  | 3.9232     | 4.0406     | 4.1547     |   2.4 | 21.17
Other   |            | 0.7363     |            |       |  3.86

Nlocal:           8000 ave        8054 max        7972 min
Histogram: 7 7 1 6 5 0 1 2 2 1
Nghost:        4172.56 ave        4213 max        4130 min
Histogram: 2 0 2 4 7 7 3 6 0 1
Neighs:        46831.2 ave       47374 max       46479 min
Histogram: 4 7 2 7 3 2 1 2 3 1

Total # of neighbors = 1498600
Ave neighs/atom = 5.8539062
Ave special neighs/atom = 1.98
Neighbor list builds = 2579
Dangerous builds = 0
Total wall time: 0:00:19
Intel(R) VTune(TM) Profiler 2022.2.0 collection completed successfully. Use the "aps --report /home/ubuntu/lammps/bench/aps_result_20220703" command to generate textual and HTML reports for the profiling session.
