LAMMPS (7 Jan 2022)
  using 1 OpenMP thread(s) per MPI task
Reading data file ...
  orthogonal box = (0 0 0) to (40 20 37.2886)
  2 by 1 by 1 MPI processor grid
  reading atoms ...
  32000 atoms
  reading velocities ...
  32000 velocities
  read_data CPU = 0.125 seconds
Replicating atoms ...
  orthogonal box = (0 0 0) to (120 60 37.292229)
  2 by 1 by 1 MPI processor grid
  288000 atoms
  replicate CPU = 0.027 seconds
8208 atoms in group bottom
279792 atoms in group active
  generated 0 of 1 mixed pair_coeff terms from geometric mixing rule
Neighbor list info ...
  update every 1 steps, delay 0 steps, check yes
  max neighbors/atom: 2000, page size: 100000
  master list distance cutoff = 1.1
  ghost atom cutoff = 1.1
  binsize = 0.55, bins = 219 110 68
  1 neighbor lists, perpetual/occasional/extra = 1 0 0
  (1) pair gran/hooke/history, perpetual
      attributes: half, newton off, size, history
      pair build: half/size/bin/newtoff
      stencil: full/bin/3d
      bin: standard
Setting up Verlet run ...
  Unit style    : lj
  Current step  : 0
  Time step     : 0.0001
Per MPI rank memory allocation (min/avg/max) = 70.99 | 70.99 | 70.99 Mbytes
Step Atoms KinEng c_1 Volume 
       0   288000    7057252.2    14410.137    268504.05 
     100   288000    7058628.7    14139.871    268512.37 
     200   288000    7059804.4    14164.771    268526.08 
     300   288000    7061071.3    14224.268    268539.55 
     400   288000    7062373.5    14150.143    268552.35 
     500   288000    7063485.9    14076.431    268566.25 
     600   288000    7064742.3     14080.06    268580.09 
     700   288000    7066157.4    13972.136    268593.26 
     800   288000    7067612.3    13996.988    268605.75 
     900   288000    7069146.1    13912.936    268617.57 
    1000   288000    7070149.9    13858.805    268628.72 
    1100   288000    7071323.1    13804.216    268639.19 
    1200   288000    7072398.5    13913.402    268648.99 
    1300   288000    7073366.7    13949.418    268658.12 
    1400   288000    7074104.1    13975.379    268666.58 
    1500   288000    7074971.5    14095.327    268674.36 
    1600   288000    7075717.8    14160.004    268681.46 
    1700   288000    7076419.2    14335.129     268687.9 
    1800   288000    7076924.5    14454.308    268691.81 
    1900   288000      7077383    14528.876    268697.13 
    2000   288000    7077900.2    14569.617    268701.76 
    2100   288000    7078385.6    14730.116    268705.73 
    2200   288000      7078974    14766.177    268709.02 
    2300   288000    7079530.7    14751.539    268711.64 
    2400   288000    7080208.2    14702.637    268713.59 
    2500   288000    7080752.2    14691.281    268714.86 
    2600   288000    7081160.3    14754.075    268715.46 
    2700   288000    7081506.3    14843.619    268715.87 
    2800   288000    7081710.2    14861.527    268717.37 
    2900   288000    7081974.1    14886.797    268718.19 
    3000   288000    7082088.9     14912.52    268718.34 
    3100   288000    7082376.4    14997.327    268717.82 
    3200   288000    7082694.4    15086.956    268716.63 
    3300   288000    7083318.4    15064.543    268714.76 
    3400   288000      7083946    15026.053    268712.25 
    3500   288000    7084632.4    14992.141    268709.14 
    3600   288000    7085254.4    14939.215     268705.4 
    3700   288000    7085827.5    14912.332    268701.03 
    3800   288000    7086273.7    14926.975    268695.86 
    3900   288000      7086719    14972.347    268690.33 
    4000   288000    7087124.2    14954.652    268693.15 
    4100   288000    7087414.3    14910.655    268696.81 
    4200   288000    7087591.8    14898.328     268699.8 
    4300   288000    7087741.7    14882.642    268702.12 
    4400   288000    7087837.1    14920.877    268703.76 
    4500   288000    7087880.2    14982.379    268704.73 
    4600   288000    7087917.8    15064.138    268705.03 
    4700   288000    7088062.7    15110.053    268704.65 
    4800   288000    7088195.3    15141.749     268703.6 
    4900   288000    7088369.1     15190.46    268701.88 
    5000   288000    7088580.4    15281.514    268699.48 
    5100   288000    7088813.6    15349.901    268696.41 
    5200   288000    7089081.7     15407.98    268692.67 
    5300   288000      7089425    15508.632    268688.25 
    5400   288000    7089777.5     15583.16    268683.27 
    5500   288000    7090266.4     15592.43    268677.64 
    5600   288000    7090727.7     15600.62    268671.23 
    5700   288000    7091174.3     15607.31    268664.15 
    5800   288000    7091652.1    15594.962    268656.39 
    5900   288000    7092219.3    15540.849    268648.22 
    6000   288000    7092833.8    15487.305    268641.46 
    6100   288000    7093473.8    15441.434    268640.46 
    6200   288000      7094108    15442.755    268642.64 
    6300   288000    7094816.3     15397.01    268644.19 
    6400   288000    7095566.9    15341.096     268645.1 
    6500   288000    7096358.5    15282.294    268645.38 
    6600   288000    7097173.6    15240.081    268645.03 
    6700   288000    7098014.1    15185.285    268644.04 
    6800   288000    7098896.3    15106.905    268642.41 
    6900   288000    7099705.1    15055.997    268640.16 
    7000   288000      7100526    15034.594     268637.2 
    7100   288000    7101295.2    14986.876    268633.54 
    7200   288000    7102021.6    14958.171    268629.22 
    7300   288000    7102716.7    14930.526    268624.21 
    7400   288000    7103368.5    14915.894    268618.54 
    7500   288000    7104012.5    14889.809    268612.19 
    7600   288000    7104649.3    14876.723    268607.58 
    7700   288000    7105237.5    14889.992    268600.11 
    7800   288000    7105818.8    14857.361    268591.97 
    7900   288000    7106275.8    14854.737    268583.15 
    8000   288000    7106704.4    14849.665    268573.66 
    8100   288000    7107134.2    14895.044    268563.49 
    8200   288000    7107591.8    14939.062    268552.66 
    8300   288000      7108042    14916.776    268541.15 
    8400   288000    7108409.3    14888.767    268529.33 
    8500   288000    7108728.8     14854.18    268516.88 
    8600   288000    7108952.2    14890.407     268503.8 
    8700   288000    7109079.3    14985.818    268490.08 
    8800   288000    7109147.5    15035.732    268475.72 
    8900   288000    7109137.8    15104.851    268460.74 
    9000   288000    7108992.4    15145.513    268445.12 
    9100   288000    7108821.2    15216.406    268428.86 
    9200   288000    7108529.3    15310.971    268411.97 
    9300   288000    7108209.3    15377.673    268396.32 
    9400   288000    7107866.1    15460.498    268389.53 
    9500   288000    7107620.6    15493.712    268382.11 
    9600   288000    7107386.8    15523.937    268374.06 
    9700   288000    7107171.1    15525.802    268365.37 
    9800   288000    7107007.7    15495.965     268352.8 
    9900   288000    7106856.2     15494.04    268342.63 
   10000   288000      7106638     15485.33    268337.59 
Loop time of 135.167 on 2 procs for 10000 steps with 288000 atoms

Performance: 639.209 tau/day, 73.983 timesteps/s
99.8% CPU use with 2 MPI tasks x 1 OpenMP threads

MPI task timing breakdown:
Section |  min time  |  avg time  |  max time  |%varavg| %total
---------------------------------------------------------------
Pair    | 74.536     | 74.865     | 75.194     |   3.8 | 55.39
Neigh   | 22.189     | 22.228     | 22.267     |   0.8 | 16.45
Comm    | 3.7215     | 3.7433     | 3.7652     |   1.1 |  2.77
Output  | 0.056762   | 0.059591   | 0.06242    |   1.2 |  0.04
Modify  | 26.309     | 26.418     | 26.527     |   2.1 | 19.54
Other   |            | 7.853      |            |       |  5.81

Nlocal:         144000 ave      144016 max      143984 min
Histogram: 1 0 0 0 0 0 0 0 0 1
Nghost:        10750.5 ave       10752 max       10749 min
Histogram: 1 0 0 0 0 0 0 0 0 1
Neighs:         507942 ave      508021 max      507864 min
Histogram: 1 0 0 0 0 0 0 0 0 1

Total # of neighbors = 1015885
Ave neighs/atom = 3.5273785
Neighbor list builds = 297
Dangerous builds = 0
Total wall time: 0:02:15
Intel(R) VTune(TM) Profiler 2022.2.0 collection completed successfully. Use the "aps --report /home/ubuntu/lammps/bench/aps_result_20220703" command to generate textual and HTML reports for the profiling session.
