LAMMPS (7 Jan 2022)
  using 1 OpenMP thread(s) per MPI task
Reading data file ...
  orthogonal box = (-16.796 -16.796 -16.796) to (16.796 16.796 16.796)
  4 by 4 by 4 MPI processor grid
  reading atoms ...
  32000 atoms
  reading velocities ...
  32000 velocities
  scanning bonds ...
  1 = max bonds/atom
  reading bonds ...
  31680 bonds
Finding 1-2 1-3 1-4 neighbors ...
  special bond factors lj:    0        1        1       
  special bond factors coul:  0        1        1       
     2 = max # of 1-2 neighbors
     2 = max # of special neighbors
  special bonds CPU = 0.008 seconds
  read_data CPU = 0.156 seconds
Replicating atoms ...
  orthogonal box = (-16.796 -16.796 -16.796) to (117.572 117.572 117.572)
  4 by 4 by 4 MPI processor grid
  2048000 atoms
  2027520 bonds
Finding 1-2 1-3 1-4 neighbors ...
  special bond factors lj:    0        1        1       
  special bond factors coul:  0        1        1       
     2 = max # of 1-2 neighbors
     2 = max # of special neighbors
  special bonds CPU = 0.030 seconds
  replicate CPU = 0.094 seconds
----------------------------------------------------------
Using INTEL Package without Coprocessor.
Compiler: Intel Classic C++ 20.21.5 / Intel(R) C++ g++ 9.3 mode
SIMD compiler directives: Enabled
Precision: mixed
----------------------------------------------------------
  generated 0 of 0 mixed pair_coeff terms from geometric mixing rule
Neighbor list info ...
  update every 1 steps, delay 1 steps, check yes
  max neighbors/atom: 2000, page size: 100000
  master list distance cutoff = 1.52
  ghost atom cutoff = 1.52
  binsize = 0.76, bins = 177 177 177
  1 neighbor lists, perpetual/occasional/extra = 1 0 0
  (1) pair lj/cut/intel, perpetual
      attributes: half, newton on, intel
      pair build: half/bin/newton/intel
      stencil: half/bin/3d
      bin: intel
Setting up Verlet run ...
  Unit style    : lj
  Current step  : 0
  Time step     : 0.012
WARNING: Communication cutoff 1.52 is shorter than a bond length based estimate of 1.855. This may lead to errors. (../comm.cpp:723)
Per MPI rank memory allocation (min/avg/max) = 285.7 | 285.7 | 285.7 Mbytes
Step Temp E_pair E_mol TotEng Press 
       0   0.97026787     0.444841    20.494523    22.394765    4.6721831 
     100   0.97390978   0.44149374    20.501432     22.40379     4.684977 
Loop time of 2.28496 on 64 procs for 100 steps with 2048000 atoms

Performance: 45374.922 tau/day, 43.764 timesteps/s
94.0% CPU use with 64 MPI tasks x 1 OpenMP threads

MPI task timing breakdown:
Section |  min time  |  avg time  |  max time  |%varavg| %total
---------------------------------------------------------------
Pair    | 0.26289    | 0.28839    | 0.45828    |   5.7 | 12.62
Bond    | 0.047805   | 0.057145   | 0.081934   |   3.4 |  2.50
Neigh   | 0.50645    | 0.53762    | 0.55697    |   2.0 | 23.53
Comm    | 0.43193    | 0.60893    | 0.86242    |  19.2 | 26.65
Output  | 0.00016744 | 0.00049777 | 0.00074846 |   0.0 |  0.02
Modify  | 0.19044    | 0.2141     | 0.41649    |   6.9 |  9.37
Other   |            | 0.5783     |            |       | 25.31

Nlocal:          32000 ave       32063 max       31952 min
Histogram: 4 5 8 8 17 8 9 2 1 2
Nghost:        9500.94 ave        9563 max        9441 min
Histogram: 5 3 7 7 12 7 13 2 5 3
Neighs:         187463 ave      187992 max      186983 min
Histogram: 3 4 10 5 8 11 16 5 1 1

Total # of neighbors = 11997656
Ave neighs/atom = 5.8582305
Ave special neighs/atom = 1.98
Neighbor list builds = 27
Dangerous builds = 0
Total wall time: 0:00:02
Intel(R) VTune(TM) Profiler 2022.2.0 collection completed successfully. Use the "aps --report /home/ubuntu/lammps/bench/aps_result_20220526" command to generate textual and HTML reports for the profiling session.
