LAMMPS (7 Jan 2022)
  using 1 OpenMP thread(s) per MPI task
Reading data file ...
  orthogonal box = (-16.796 -16.796 -16.796) to (16.796 16.796 16.796)
  4 by 4 by 4 MPI processor grid
  reading atoms ...
  32000 atoms
  reading velocities ...
  32000 velocities
  scanning bonds ...
  1 = max bonds/atom
  reading bonds ...
  31680 bonds
Finding 1-2 1-3 1-4 neighbors ...
  special bond factors lj:    0        1        1       
  special bond factors coul:  0        1        1       
     2 = max # of 1-2 neighbors
     2 = max # of special neighbors
  special bonds CPU = 0.008 seconds
  read_data CPU = 0.112 seconds
Replicating atoms ...
  orthogonal box = (-16.796 -16.796 -16.796) to (83.98 83.98 83.98)
  4 by 4 by 4 MPI processor grid
  864000 atoms
  855360 bonds
Finding 1-2 1-3 1-4 neighbors ...
  special bond factors lj:    0        1        1       
  special bond factors coul:  0        1        1       
     2 = max # of 1-2 neighbors
     2 = max # of special neighbors
  special bonds CPU = 0.011 seconds
  replicate CPU = 0.028 seconds
----------------------------------------------------------
Using INTEL Package without Coprocessor.
Compiler: Intel Classic C++ 20.21.5 / Intel(R) C++ g++ 9.3 mode
SIMD compiler directives: Enabled
Precision: mixed
----------------------------------------------------------
  generated 0 of 0 mixed pair_coeff terms from geometric mixing rule
Neighbor list info ...
  update every 1 steps, delay 1 steps, check yes
  max neighbors/atom: 2000, page size: 100000
  master list distance cutoff = 1.52
  ghost atom cutoff = 1.52
  binsize = 0.76, bins = 133 133 133
  1 neighbor lists, perpetual/occasional/extra = 1 0 0
  (1) pair lj/cut/intel, perpetual
      attributes: half, newton on, intel
      pair build: half/bin/newton/intel
      stencil: half/bin/3d
      bin: intel
Setting up Verlet run ...
  Unit style    : lj
  Current step  : 0
  Time step     : 0.012
WARNING: Communication cutoff 1.52 is shorter than a bond length based estimate of 1.855. This may lead to errors. (../comm.cpp:723)
Per MPI rank memory allocation (min/avg/max) = 122.8 | 123.1 | 123.6 Mbytes
Step Temp E_pair E_mol TotEng Press 
       0   0.97026852   0.44484092    20.494523    22.394765    4.6721839 
     100   0.97413127   0.44015029    20.501579    22.402925    4.6847304 
     200   0.97628525   0.44435356    20.503485    22.412265    4.7027325 
     300   0.97967908   0.44483545    20.505718     22.42007    4.7106515 
     400   0.98310452   0.44509029    20.506611    22.426356     4.730531 
     500   0.98559868   0.44680984    20.506863    22.432069     4.731716 
     600   0.98707468   0.44863183    20.508414    22.437656    4.7631694 
     700   0.98990265   0.44819551    20.508489    22.441537     4.756382 
     800   0.99136139     0.448165    20.510633    22.445838    4.7558942 
     900   0.99224538   0.45007924    20.511452    22.449898     4.776456 
    1000    0.9933758   0.45016633    20.512484    22.452713    4.7636868 
    1100    0.9950343   0.45180804    20.512069    22.456427    4.7657695 
    1200    0.9953875     0.451742     20.51271    22.457532    4.7597735 
    1300   0.99686045    0.4508713     20.51274      22.4589    4.7856181 
    1400   0.99710673   0.45173789    20.513831    22.461227    4.7739523 
    1500   0.99759183   0.45439089    20.512338    22.463115    4.7857925 
    1600   0.99842403   0.45283047    20.513164    22.463629     4.785623 
    1700   0.99887594   0.45345175    20.513259    22.465023    4.7838479 
    1800   0.99946258   0.45400894    20.513474    22.466675    4.7899816 
    1900   0.99990192   0.45153994    20.515055    22.466446    4.7807057 
    2000    1.0000033   0.45283893    20.515122    22.467964    4.7919262 
    2100    1.0007447   0.45253423    20.515234    22.468884     4.787407 
    2200    1.0006385   0.45441539    20.515585    22.470956    4.7996407 
    2300    1.0012668   0.45304945    20.516434    22.471382    4.7853247 
    2400    1.0013176   0.45318694    20.516149    22.471311    4.7863503 
    2500      1.00125   0.45415054    20.515488    22.471512    4.7961436 
    2600    0.9994244   0.45473258    20.516941    22.470808    4.7904762 
    2700   0.99984034   0.45470139    20.516475    22.470935    4.7899127 
    2800    1.0017254   0.45383802    20.514651    22.471076    4.7999799 
    2900    1.0008348    0.4538039    20.515806    22.470861    4.7759761 
    3000    1.0011924    0.4531845    20.515556    22.470528    4.7851066 
    3100    1.0019445   0.45322738    20.515244    22.471387    4.8024514 
    3200    1.0008941   0.45376398    20.514954    22.470058     4.789739 
    3300    1.0008458   0.45426129    20.516174    22.471702     4.793945 
    3400    1.0014009   0.45315602    20.516389    22.471645    4.7810976 
    3500    1.0016042   0.45411945    20.515205    22.471729    4.7958569 
    3600     1.001734   0.45392352    20.516102    22.472624    4.7981951 
    3700     1.001349   0.45408134    20.515913    22.472017    4.8025012 
    3800    1.0012204   0.45382221    20.516643    22.472294    4.7966283 
    3900    1.0007115   0.45370995    20.515118    22.469894    4.7785689 
    4000    1.0005809   0.45360811    20.516018    22.470496    4.8074973 
    4100   0.99878066   0.45459267    20.516456    22.469218    4.7922703 
    4200    1.0009117   0.45333416    20.514255    22.468955    4.7912733 
    4300    1.0003852   0.45362826    20.516276     22.47048    4.7850649 
    4400    1.0001033   0.45320968    20.516536    22.469899    4.8110455 
    4500    1.0004033    0.4538874    20.514981    22.469471    4.7984588 
    4600    1.0005655   0.45320842    20.515932    22.469987    4.7741503 
    4700    1.0010071   0.45289632    20.514848    22.469253     4.782505 
    4800    1.0018749   0.45329725    20.513799    22.469907    4.7891281 
    4900    1.0011122   0.45382033    20.513843    22.469329     4.790289 
    5000   0.99994318   0.45292791    20.516123    22.468963    4.7950676 
    5100    1.0003657   0.45272582    20.515087     22.46836    4.7950735 
    5200   0.99956197   0.45420959     20.51576    22.469311    4.8013344 
    5300    1.0006456   0.45367428    20.515664    22.470305    4.8092188 
    5400    1.0014679   0.45370002     20.51513     22.47103    4.7713136 
    5500    1.0008607   0.45469804    20.515074    22.471061    4.8060156 
    5600    1.0003995   0.45433365    20.514728    22.469659    4.7856631 
    5700    0.9995893   0.45456606    20.515203    22.469151    4.7943219 
    5800    1.0012957   0.45271708     20.51572    22.470379    4.7962276 
    5900    1.0008633   0.45470709     20.51488     22.47088    4.7988948 
    6000    0.9995702   0.45500698    20.516009     22.47037    4.8054956 
    6100    1.0005312   0.45423858    20.515517    22.470551    4.7982185 
    6200    1.0002918   0.45345259    20.516356    22.470244    4.7914551 
    6300    1.0008811    0.4531002    20.515078    22.469498    4.7829702 
    6400    1.0000759    0.4541421    20.516819    22.471073    4.8130764 
    6500     1.001389   0.45383686    20.516165    22.472084    4.7914318 
    6600    1.0026663   0.45441914    20.514408    22.472825    4.7788506 
    6700     1.001703   0.45508995    20.515112    22.472755    4.7960255 
    6800    1.0025269   0.45362583    20.515301    22.472715    4.7915628 
    6900    1.0008008    0.4546504    20.516818    22.472667    4.7935798 
    7000    1.0001437   0.45363037    20.517419    22.471264    4.7766952 
    7100    1.0012643    0.4529402    20.515475     22.47031    4.7920299 
    7200    1.0007114   0.45415522     20.51556    22.470781    4.7951193 
    7300    1.0008418   0.45370553    20.515433      22.4704    4.7933137 
    7400    1.0011947   0.45360177    20.516374    22.471766    4.7792219 
    7500    1.0006475   0.45373125    20.517167    22.471868    4.7968235 
    7600    1.0005944    0.4543816    20.516499     22.47177    4.8042078 
    7700    1.0011854   0.45400461     20.51563    22.471411    4.7979719 
    7800    1.0010398   0.45251072    20.517394    22.471462    4.7917087 
    7900    1.0019184   0.45394152    20.516245    22.473062    4.7913063 
    8000    1.0030895   0.45286303    20.515889    22.473384    4.7887975 
    8100    1.0026684   0.45470742     20.51455    22.473259    4.7970407 
    8200    1.0022658   0.45342112    20.514617    22.471435    4.7898547 
    8300    1.0010331   0.45549286    20.515813    22.472854    4.8064999 
    8400     1.000801   0.45484004    20.516291    22.472331    4.8022514 
    8500    1.0024901   0.45397003    20.515282    22.472985    4.7917695 
    8600    1.0013181   0.45436967    20.515379    22.471724    4.7835968 
    8700    1.0019848   0.45431575    20.516461    22.473752    4.7915376 
    8800    1.0020945   0.45362718    20.516177    22.472945    4.7852758 
    8900    1.0017281   0.45329009    20.516821    22.472702    4.8041353 
    9000    1.0022457   0.45363468    20.515318     22.47232    4.7848422 
    9100    1.0008061   0.45597317    20.515557    22.472737    4.8109587 
    9200    1.0019557   0.45466177    20.515863    22.473457    4.7953681 
    9300    1.0022271   0.45405808    20.516462    22.473859    4.7963405 
    9400    1.0019829   0.45527691    20.515115    22.473365    4.7974562 
    9500    1.0018635   0.45370234    20.516799    22.473295    4.8099536 
    9600    1.0019521   0.45408729    20.517754    22.474767    4.8033726 
    9700    1.0024143   0.45409777    20.517414    22.475132    4.8063703 
    9800     1.002337    0.4549222    20.517062    22.475488     4.796814 
    9900    1.0023946   0.45375943    20.516306    22.473655    4.7890991 
   10000    1.0019617   0.45435916    20.515918    22.473218    4.8052626 
Loop time of 42.504 on 64 procs for 10000 steps with 864000 atoms

Performance: 243929.775 tau/day, 235.272 timesteps/s
99.1% CPU use with 64 MPI tasks x 1 OpenMP threads

MPI task timing breakdown:
Section |  min time  |  avg time  |  max time  |%varavg| %total
---------------------------------------------------------------
Pair    | 10.378     | 10.604     | 10.852     |   3.5 | 24.95
Bond    | 1.7302     | 1.7958     | 1.8687     |   2.2 |  4.23
Neigh   | 10.706     | 10.783     | 10.87      |   1.1 | 25.37
Comm    | 8.17       | 8.4938     | 8.8517     |   6.0 | 19.98
Output  | 0.012153   | 0.017591   | 0.02076    |   1.1 |  0.04
Modify  | 7.9127     | 8.1845     | 8.7319     |   4.8 | 19.26
Other   |            | 2.625      |            |       |  6.18

Nlocal:          13500 ave       13578 max       13437 min
Histogram: 5 2 6 10 17 12 5 5 0 2
Nghost:        5501.02 ave        5560 max        5443 min
Histogram: 4 3 5 10 12 11 8 4 2 5
Neighs:        79045.5 ave       79912 max       78237 min
Histogram: 1 3 5 10 18 12 9 4 1 1

Total # of neighbors = 5058909
Ave neighs/atom = 5.8552187
Ave special neighs/atom = 1.98
Neighbor list builds = 2737
Dangerous builds = 0
Total wall time: 0:00:42
Intel(R) VTune(TM) Profiler 2022.2.0 collection completed successfully. Use the "aps --report /home/ubuntu/lammps/bench/aps_result_20220703" command to generate textual and HTML reports for the profiling session.
