LAMMPS (7 Jan 2022)
  using 1 OpenMP thread(s) per MPI task
Reading data file ...
  orthogonal box = (-16.796 -16.796 -16.796) to (16.796 16.796 16.796)
  2 by 2 by 4 MPI processor grid
  reading atoms ...
  32000 atoms
  reading velocities ...
  32000 velocities
  scanning bonds ...
  1 = max bonds/atom
  reading bonds ...
  31680 bonds
Finding 1-2 1-3 1-4 neighbors ...
  special bond factors lj:    0        1        1       
  special bond factors coul:  0        1        1       
     2 = max # of 1-2 neighbors
     2 = max # of special neighbors
  special bonds CPU = 0.021 seconds
  read_data CPU = 0.650 seconds
Replicating atoms ...
  orthogonal box = (-16.796 -16.796 -16.796) to (117.572 117.572 117.572)
  2 by 2 by 4 MPI processor grid
  2048000 atoms
  2027520 bonds
Finding 1-2 1-3 1-4 neighbors ...
  special bond factors lj:    0        1        1       
  special bond factors coul:  0        1        1       
     2 = max # of 1-2 neighbors
     2 = max # of special neighbors
  special bonds CPU = 0.044 seconds
  replicate CPU = 0.158 seconds
----------------------------------------------------------
Using INTEL Package without Coprocessor.
Compiler: Intel Classic C++ 20.21.5 / Intel(R) C++ g++ 9.3 mode
SIMD compiler directives: Enabled
Precision: single
----------------------------------------------------------
  generated 0 of 0 mixed pair_coeff terms from geometric mixing rule
Neighbor list info ...
  update every 1 steps, delay 1 steps, check yes
  max neighbors/atom: 2000, page size: 100000
  master list distance cutoff = 1.52
  ghost atom cutoff = 1.52
  binsize = 0.76, bins = 177 177 177
  1 neighbor lists, perpetual/occasional/extra = 1 0 0
  (1) pair lj/cut/intel, perpetual
      attributes: half, newton on, intel
      pair build: half/bin/newton/intel
      stencil: half/bin/3d
      bin: intel
Setting up Verlet run ...
  Unit style    : lj
  Current step  : 0
  Time step     : 0.012
WARNING: Communication cutoff 1.52 is shorter than a bond length based estimate of 1.855. This may lead to errors. (../comm.cpp:723)
Per MPI rank memory allocation (min/avg/max) = 1129 | 1129 | 1129 Mbytes
Step Temp E_pair E_mol TotEng Press 
       0   0.97026787   0.44483518    20.497328    22.397565    4.6721805 
     100   0.97337837   0.44264385    20.504974    22.407685    4.6866943 
Loop time of 7.60585 on 16 procs for 100 steps with 2048000 atoms

Performance: 13631.616 tau/day, 13.148 timesteps/s
86.5% CPU use with 16 MPI tasks x 1 OpenMP threads

MPI task timing breakdown:
Section |  min time  |  avg time  |  max time  |%varavg| %total
---------------------------------------------------------------
Pair    | 0.81947    | 0.94036    | 1.6358     |  24.3 | 12.36
Bond    | 0.14322    | 0.16866    | 0.31903    |  13.0 |  2.22
Neigh   | 1.6763     | 1.6942     | 1.7052     |   0.7 | 22.28
Comm    | 1.6608     | 2.4563     | 2.8666     |  31.8 | 32.30
Output  | 0.0089107  | 0.027912   | 0.041047   |   5.1 |  0.37
Modify  | 0.68075    | 0.77815    | 1.3224     |  19.2 | 10.23
Other   |            | 1.54       |            |       | 20.25

Nlocal:         128000 ave      128089 max      127928 min
Histogram: 3 1 2 3 0 2 1 1 1 2
Nghost:        24501.4 ave       24584 max       24366 min
Histogram: 1 1 1 1 0 2 2 4 2 2
Neighs:         749706 ave      750774 max      749143 min
Histogram: 3 3 2 2 0 4 1 0 0 1

Total # of neighbors = 11995304
Ave neighs/atom = 5.857082
Ave special neighs/atom = 1.98
Neighbor list builds = 28
Dangerous builds = 0
Total wall time: 0:00:08
Intel(R) VTune(TM) Profiler 2022.2.0 collection completed successfully. Use the "aps --report /home/ubuntu/lammps/bench/aps_result_20220531" command to generate textual and HTML reports for the profiling session.
