LAMMPS (7 Jan 2022)
  using 1 OpenMP thread(s) per MPI task
Reading data file ...
  orthogonal box = (-16.796 -16.796 -16.796) to (16.796 16.796 16.796)
  2 by 4 by 4 MPI processor grid
  reading atoms ...
  32000 atoms
  reading velocities ...
  32000 velocities
  scanning bonds ...
  1 = max bonds/atom
  reading bonds ...
  31680 bonds
Finding 1-2 1-3 1-4 neighbors ...
  special bond factors lj:    0        1        1       
  special bond factors coul:  0        1        1       
     2 = max # of 1-2 neighbors
     2 = max # of special neighbors
  special bonds CPU = 0.002 seconds
  read_data CPU = 0.196 seconds
Replicating atoms ...
  orthogonal box = (-16.796 -16.796 -16.796) to (83.98 83.98 83.98)
  4 by 2 by 4 MPI processor grid
  864000 atoms
  855360 bonds
Finding 1-2 1-3 1-4 neighbors ...
  special bond factors lj:    0        1        1       
  special bond factors coul:  0        1        1       
     2 = max # of 1-2 neighbors
     2 = max # of special neighbors
  special bonds CPU = 0.022 seconds
  replicate CPU = 0.055 seconds
----------------------------------------------------------
Using INTEL Package without Coprocessor.
Compiler: Intel Classic C++ 20.21.5 / Intel(R) C++ g++ 9.3 mode
SIMD compiler directives: Enabled
Precision: mixed
----------------------------------------------------------
  generated 0 of 0 mixed pair_coeff terms from geometric mixing rule
Neighbor list info ...
  update every 1 steps, delay 1 steps, check yes
  max neighbors/atom: 2000, page size: 100000
  master list distance cutoff = 1.52
  ghost atom cutoff = 1.52
  binsize = 0.76, bins = 133 133 133
  1 neighbor lists, perpetual/occasional/extra = 1 0 0
  (1) pair lj/cut/intel, perpetual
      attributes: half, newton on, intel
      pair build: half/bin/newton/intel
      stencil: half/bin/3d
      bin: intel
Setting up Verlet run ...
  Unit style    : lj
  Current step  : 0
  Time step     : 0.012
WARNING: Communication cutoff 1.52 is shorter than a bond length based estimate of 1.855. This may lead to errors. (../comm.cpp:723)
Per MPI rank memory allocation (min/avg/max) = 241.9 | 242.4 | 242.9 Mbytes
Step Temp E_pair E_mol TotEng Press 
       0   0.97026852   0.44484092    20.494523    22.394765    4.6721839 
     100   0.97393134   0.44236165    20.501881    22.405138    4.7056167 
Loop time of 1.59227 on 32 procs for 100 steps with 864000 atoms

Performance: 65114.681 tau/day, 62.804 timesteps/s
89.7% CPU use with 32 MPI tasks x 1 OpenMP threads

MPI task timing breakdown:
Section |  min time  |  avg time  |  max time  |%varavg| %total
---------------------------------------------------------------
Pair    | 0.1895     | 0.23366    | 0.4449     |   8.4 | 14.67
Bond    | 0.032031   | 0.041392   | 0.11255    |   6.4 |  2.60
Neigh   | 0.27236    | 0.31015    | 0.33095    |   2.9 | 19.48
Comm    | 0.35682    | 0.58464    | 0.81453    |  25.3 | 36.72
Output  | 9.9097e-05 | 0.00026088 | 0.0004574  |   0.0 |  0.02
Modify  | 0.14237    | 0.17562    | 0.19154    |   3.0 | 11.03
Other   |            | 0.2465     |            |       | 15.48

Nlocal:          27000 ave       27080 max       26925 min
Histogram: 3 3 2 3 3 6 7 2 2 1
Nghost:        8971.81 ave        9038 max        8898 min
Histogram: 4 2 0 2 7 5 3 4 1 4
Neighs:         158136 ave      158786 max      157253 min
Histogram: 2 0 3 4 4 5 2 3 3 6

Total # of neighbors = 5060361
Ave neighs/atom = 5.8568993
Ave special neighs/atom = 1.98
Neighbor list builds = 25
Dangerous builds = 0
Total wall time: 0:00:01
Intel(R) VTune(TM) Profiler 2022.2.0 collection completed successfully. Use the "aps --report /home/ubuntu/lammps/bench/aps_result_20220526" command to generate textual and HTML reports for the profiling session.
