LAMMPS (7 Jan 2022)
  using 1 OpenMP thread(s) per MPI task
Reading data file ...
  orthogonal box = (-16.796 -16.796 -16.796) to (16.796 16.796 16.796)
  2 by 4 by 4 MPI processor grid
  reading atoms ...
  32000 atoms
  reading velocities ...
  32000 velocities
  scanning bonds ...
  1 = max bonds/atom
  reading bonds ...
  31680 bonds
Finding 1-2 1-3 1-4 neighbors ...
  special bond factors lj:    0        1        1       
  special bond factors coul:  0        1        1       
     2 = max # of 1-2 neighbors
     2 = max # of special neighbors
  special bonds CPU = 0.002 seconds
  read_data CPU = 0.217 seconds
Replicating atoms ...
  orthogonal box = (-16.796 -16.796 -16.796) to (50.388 50.388 50.388)
  2 by 4 by 4 MPI processor grid
  256000 atoms
  253440 bonds
Finding 1-2 1-3 1-4 neighbors ...
  special bond factors lj:    0        1        1       
  special bond factors coul:  0        1        1       
     2 = max # of 1-2 neighbors
     2 = max # of special neighbors
  special bonds CPU = 0.017 seconds
  replicate CPU = 0.026 seconds
----------------------------------------------------------
Using INTEL Package without Coprocessor.
Compiler: Intel Classic C++ 20.21.5 / Intel(R) C++ g++ 9.3 mode
SIMD compiler directives: Enabled
Precision: mixed
----------------------------------------------------------
  generated 0 of 0 mixed pair_coeff terms from geometric mixing rule
Neighbor list info ...
  update every 1 steps, delay 1 steps, check yes
  max neighbors/atom: 2000, page size: 100000
  master list distance cutoff = 1.52
  ghost atom cutoff = 1.52
  binsize = 0.76, bins = 89 89 89
  1 neighbor lists, perpetual/occasional/extra = 1 0 0
  (1) pair lj/cut/intel, perpetual
      attributes: half, newton on, intel
      pair build: half/bin/newton/intel
      stencil: half/bin/3d
      bin: intel
Setting up Verlet run ...
  Unit style    : lj
  Current step  : 0
  Time step     : 0.012
WARNING: Communication cutoff 1.52 is shorter than a bond length based estimate of 1.855. This may lead to errors. (../comm.cpp:723)
Per MPI rank memory allocation (min/avg/max) = 72.89 | 73.01 | 73.19 Mbytes
Step Temp E_pair E_mol TotEng Press 
       0   0.97027119   0.44484088    20.494523    22.394765    4.6721834 
     100    0.9757858   0.44055964    20.501883    22.406115    4.6766806 
Loop time of 0.456709 on 32 procs for 100 steps with 256000 atoms

Performance: 227015.556 tau/day, 218.958 timesteps/s
89.3% CPU use with 32 MPI tasks x 1 OpenMP threads

MPI task timing breakdown:
Section |  min time  |  avg time  |  max time  |%varavg| %total
---------------------------------------------------------------
Pair    | 0.05603    | 0.067249   | 0.12065    |   3.9 | 14.72
Bond    | 0.0085832  | 0.011599   | 0.040663   |   4.9 |  2.54
Neigh   | 0.10179    | 0.1169     | 0.11834    |   1.1 | 25.60
Comm    | 0.053156   | 0.15896    | 0.22033    |  13.0 | 34.81
Output  | 8.3511e-05 | 0.00010188 | 0.00018987 |   0.0 |  0.02
Modify  | 0.038788   | 0.048009   | 0.049861   |   1.6 | 10.51
Other   |            | 0.0539     |            |       | 11.80

Nlocal:           8000 ave        8038 max        7966 min
Histogram: 2 1 2 7 5 8 3 0 3 1
Nghost:        4172.28 ave        4221 max        4135 min
Histogram: 1 2 5 6 6 8 2 1 0 1
Neighs:        46845.2 ave       47198 max       46495 min
Histogram: 1 4 1 6 4 4 5 3 3 1

Total # of neighbors = 1499046
Ave neighs/atom = 5.8556484
Ave special neighs/atom = 1.98
Neighbor list builds = 25
Dangerous builds = 0
Total wall time: 0:00:00
Intel(R) VTune(TM) Profiler 2022.2.0 collection completed successfully. Use the "aps --report /home/ubuntu/lammps/bench/aps_result_20220526" command to generate textual and HTML reports for the profiling session.
