LAMMPS (7 Jan 2022)
  using 1 OpenMP thread(s) per MPI task
Reading data file ...
  orthogonal box = (-16.796 -16.796 -16.796) to (16.796 16.796 16.796)
  2 by 2 by 2 MPI processor grid
  reading atoms ...
  32000 atoms
  reading velocities ...
  32000 velocities
  scanning bonds ...
  1 = max bonds/atom
  reading bonds ...
  31680 bonds
Finding 1-2 1-3 1-4 neighbors ...
  special bond factors lj:    0        1        1       
  special bond factors coul:  0        1        1       
     2 = max # of 1-2 neighbors
     2 = max # of special neighbors
  special bonds CPU = 0.002 seconds
  read_data CPU = 0.115 seconds
Replicating atoms ...
  orthogonal box = (-16.796 -16.796 -16.796) to (83.98 83.98 83.98)
  2 by 2 by 2 MPI processor grid
  864000 atoms
  855360 bonds
Finding 1-2 1-3 1-4 neighbors ...
  special bond factors lj:    0        1        1       
  special bond factors coul:  0        1        1       
     2 = max # of 1-2 neighbors
     2 = max # of special neighbors
  special bonds CPU = 0.030 seconds
  replicate CPU = 0.068 seconds
----------------------------------------------------------
Using INTEL Package without Coprocessor.
Compiler: Intel Classic C++ 20.21.5 / Intel(R) C++ g++ 9.3 mode
SIMD compiler directives: Enabled
Precision: single
----------------------------------------------------------
  generated 0 of 0 mixed pair_coeff terms from geometric mixing rule
Neighbor list info ...
  update every 1 steps, delay 1 steps, check yes
  max neighbors/atom: 2000, page size: 100000
  master list distance cutoff = 1.52
  ghost atom cutoff = 1.52
  binsize = 0.76, bins = 133 133 133
  1 neighbor lists, perpetual/occasional/extra = 1 0 0
  (1) pair lj/cut/intel, perpetual
      attributes: half, newton on, intel
      pair build: half/bin/newton/intel
      stencil: half/bin/3d
      bin: intel
Setting up Verlet run ...
  Unit style    : lj
  Current step  : 0
  Time step     : 0.012
WARNING: Communication cutoff 1.52 is shorter than a bond length based estimate of 1.855. This may lead to errors. (../comm.cpp:723)
Per MPI rank memory allocation (min/avg/max) = 950.4 | 951.1 | 951.7 Mbytes
Step Temp E_pair E_mol TotEng Press 
       0   0.97026852   0.44483561    20.497397    22.397634    4.6721844 
     100   0.97336877   0.44157955    20.504221    22.405852    4.6960837 
Loop time of 3.04363 on 8 procs for 100 steps with 864000 atoms

Performance: 34064.617 tau/day, 32.856 timesteps/s
98.6% CPU use with 8 MPI tasks x 1 OpenMP threads

MPI task timing breakdown:
Section |  min time  |  avg time  |  max time  |%varavg| %total
---------------------------------------------------------------
Pair    | 0.74103    | 0.75775    | 0.80139    |   2.2 | 24.90
Bond    | 0.12693    | 0.12979    | 0.13833    |   1.0 |  4.26
Neigh   | 0.69878    | 0.70081    | 0.70189    |   0.1 | 23.03
Comm    | 0.60941    | 0.6635     | 0.68054    |   2.9 | 21.80
Output  | 0.00028439 | 0.0003089  | 0.0003453  |   0.0 |  0.01
Modify  | 0.63666    | 0.64749    | 0.6879     |   2.1 | 21.27
Other   |            | 0.144      |            |       |  4.73

Nlocal:         108000 ave      108146 max      107815 min
Histogram: 2 1 0 0 0 0 1 0 2 2
Nghost:        20755.4 ave       20842 max       20671 min
Histogram: 2 1 1 0 0 0 1 0 0 3
Neighs:         632560 ave      634073 max      630645 min
Histogram: 1 2 0 0 1 0 0 0 1 3

Total # of neighbors = 5060478
Ave neighs/atom = 5.8570347
Ave special neighs/atom = 1.98
Neighbor list builds = 25
Dangerous builds = 0
Total wall time: 0:00:03
Intel(R) VTune(TM) Profiler 2022.2.0 collection completed successfully. Use the "aps --report /home/ubuntu/lammps/bench/aps_result_20220601" command to generate textual and HTML reports for the profiling session.
