LAMMPS (7 Jan 2022)
  using 1 OpenMP thread(s) per MPI task
Reading data file ...
  orthogonal box = (-16.796 -16.796 -16.796) to (16.796 16.796 16.796)
  1 by 1 by 2 MPI processor grid
  reading atoms ...
  32000 atoms
  reading velocities ...
  32000 velocities
  scanning bonds ...
  1 = max bonds/atom
  reading bonds ...
  31680 bonds
Finding 1-2 1-3 1-4 neighbors ...
  special bond factors lj:    0        1        1       
  special bond factors coul:  0        1        1       
     2 = max # of 1-2 neighbors
     2 = max # of special neighbors
  special bonds CPU = 0.004 seconds
  read_data CPU = 0.120 seconds
Replicating atoms ...
  orthogonal box = (-16.796 -16.796 -16.796) to (83.98 83.98 83.98)
  1 by 1 by 2 MPI processor grid
  864000 atoms
  855360 bonds
Finding 1-2 1-3 1-4 neighbors ...
  special bond factors lj:    0        1        1       
  special bond factors coul:  0        1        1       
     2 = max # of 1-2 neighbors
     2 = max # of special neighbors
  special bonds CPU = 0.095 seconds
  replicate CPU = 0.168 seconds
----------------------------------------------------------
Using INTEL Package without Coprocessor.
Compiler: Intel Classic C++ 20.21.5 / Intel(R) C++ g++ 9.3 mode
SIMD compiler directives: Enabled
Precision: single
----------------------------------------------------------
  generated 0 of 0 mixed pair_coeff terms from geometric mixing rule
Neighbor list info ...
  update every 1 steps, delay 1 steps, check yes
  max neighbors/atom: 2000, page size: 100000
  master list distance cutoff = 1.52
  ghost atom cutoff = 1.52
  binsize = 0.76, bins = 133 133 133
  1 neighbor lists, perpetual/occasional/extra = 1 0 0
  (1) pair lj/cut/intel, perpetual
      attributes: half, newton on, intel
      pair build: half/bin/newton/intel
      stencil: half/bin/3d
      bin: intel
Setting up Verlet run ...
  Unit style    : lj
  Current step  : 0
  Time step     : 0.012
WARNING: Communication cutoff 1.52 is shorter than a bond length based estimate of 1.855. This may lead to errors. (../comm.cpp:723)
Per MPI rank memory allocation (min/avg/max) = 3791 | 3793 | 3794 Mbytes
Step Temp E_pair E_mol TotEng Press 
       0   0.97026852   0.44480588    20.483771    22.383978    4.6721706 
     100   0.97318964   0.44188285    20.491675     22.39334     4.692522 
Loop time of 10.4432 on 2 procs for 100 steps with 864000 atoms

Performance: 9928.038 tau/day, 9.576 timesteps/s
99.3% CPU use with 2 MPI tasks x 1 OpenMP threads

MPI task timing breakdown:
Section |  min time  |  avg time  |  max time  |%varavg| %total
---------------------------------------------------------------
Pair    | 2.6835     | 2.7049     | 2.7262     |   1.3 | 25.90
Bond    | 0.44163    | 0.44526    | 0.44888    |   0.5 |  4.26
Neigh   | 2.546      | 2.5462     | 2.5463     |   0.0 | 24.38
Comm    | 2.0419     | 2.0682     | 2.0944     |   1.8 | 19.80
Output  | 0.00098831 | 0.0013179  | 0.0016476  |   0.9 |  0.01
Modify  | 2.3047     | 2.3206     | 2.3364     |   1.0 | 22.22
Other   |            | 0.3568     |            |       |  3.42

Nlocal:         432000 ave      432076 max      431924 min
Histogram: 1 0 0 0 0 0 0 0 0 1
Nghost:        54110.5 ave       54152 max       54069 min
Histogram: 1 0 0 0 0 0 0 0 0 1
Neighs:    2.53027e+06 ave 2.53189e+06 max 2.52865e+06 min
Histogram: 1 0 0 0 0 0 0 0 0 1

Total # of neighbors = 5060536
Ave neighs/atom = 5.8571019
Ave special neighs/atom = 1.98
Neighbor list builds = 26
Dangerous builds = 0
Total wall time: 0:00:11
Intel(R) VTune(TM) Profiler 2022.2.0 collection completed successfully. Use the "aps --report /home/ubuntu/lammps/bench/aps_result_20220601" command to generate textual and HTML reports for the profiling session.
