LAMMPS (7 Jan 2022)
  using 1 OpenMP thread(s) per MPI task
Reading data file ...
  orthogonal box = (-16.796 -16.796 -16.796) to (16.796 16.796 16.796)
  1 by 2 by 2 MPI processor grid
  reading atoms ...
  32000 atoms
  reading velocities ...
  32000 velocities
  scanning bonds ...
  1 = max bonds/atom
  reading bonds ...
  31680 bonds
Finding 1-2 1-3 1-4 neighbors ...
  special bond factors lj:    0        1        1       
  special bond factors coul:  0        1        1       
     2 = max # of 1-2 neighbors
     2 = max # of special neighbors
  special bonds CPU = 0.002 seconds
  read_data CPU = 0.120 seconds
Replicating atoms ...
  orthogonal box = (-16.796 -16.796 -16.796) to (117.572 117.572 117.572)
  1 by 2 by 2 MPI processor grid
  2048000 atoms
  2027520 bonds
Finding 1-2 1-3 1-4 neighbors ...
  special bond factors lj:    0        1        1       
  special bond factors coul:  0        1        1       
     2 = max # of 1-2 neighbors
     2 = max # of special neighbors
  special bonds CPU = 0.130 seconds
  replicate CPU = 0.231 seconds
----------------------------------------------------------
Using INTEL Package without Coprocessor.
Compiler: Intel Classic C++ 20.21.5 / Intel(R) C++ g++ 9.3 mode
SIMD compiler directives: Enabled
Precision: mixed
----------------------------------------------------------
  generated 0 of 0 mixed pair_coeff terms from geometric mixing rule
Neighbor list info ...
  update every 1 steps, delay 1 steps, check yes
  max neighbors/atom: 2000, page size: 100000
  master list distance cutoff = 1.52
  ghost atom cutoff = 1.52
  binsize = 0.76, bins = 177 177 177
  1 neighbor lists, perpetual/occasional/extra = 1 0 0
  (1) pair lj/cut/intel, perpetual
      attributes: half, newton on, intel
      pair build: half/bin/newton/intel
      stencil: half/bin/3d
      bin: intel
Setting up Verlet run ...
  Unit style    : lj
  Current step  : 0
  Time step     : 0.012
WARNING: Communication cutoff 1.52 is shorter than a bond length based estimate of 1.855. This may lead to errors. (../comm.cpp:723)
Per MPI rank memory allocation (min/avg/max) = 4501 | 4501 | 4501 Mbytes
Step Temp E_pair E_mol TotEng Press 
       0   0.97026787     0.444841    20.494523    22.394765    4.6721831 
     100   0.97375133   0.44103074    20.502058    22.403715    4.6849973 
     200   0.97705306   0.44335351     20.50416    22.413093    4.7053916 
     300   0.98152202   0.44440545    20.504505    22.421193    4.7074278 
     400   0.98354725   0.44678583    20.506783    22.428889    4.7344727 
     500    0.9861129   0.44741179    20.508419       22.435    4.7548723 
     600    0.9882909   0.44844571    20.509667    22.440548    4.7546556 
     700    0.9902411   0.44904551    20.510935    22.445341    4.7548766 
     800   0.99154251   0.45029758    20.511669    22.449279    4.7686716 
     900   0.99314951   0.45052552    20.512461     22.45271    4.7573544 
    1000   0.99464558   0.45129468     20.51329    22.456552    4.7736681 
    1100   0.99589125   0.45199726    20.513029    22.458863    4.7821213 
    1200   0.99635557   0.45157727    20.513985    22.460095    4.7834849 
    1300   0.99684424   0.45187091    20.513842    22.460979    4.7717051 
    1400   0.99743719   0.45264792    20.514305    22.463108    4.7759397 
    1500    0.9980519   0.45273474    20.514847    22.464659    4.7893687 
    1600   0.99879094   0.45294749    20.514993    22.466127    4.7859962 
    1700   0.99913189   0.45296402    20.515028    22.466689    4.7909766 
    1800    0.9989907    0.4531217    20.515302    22.466909    4.7795815 
    1900   0.99960212   0.45359491    20.514828    22.467825    4.7891452 
    2000   0.99976024   0.45372214    20.514972    22.468333    4.7863007 
    2100    1.0002606   0.45304036    20.515243    22.468674    4.7829262 
    2200    1.0008388   0.45356442    20.515594    22.470416    4.7769491 
    2300    1.0014028   0.45313266    20.515357    22.470593    4.7972632 
    2400     1.001178   0.45345551    20.515399     22.47062    4.7835051 
    2500    1.0008462   0.45416894    20.515395    22.470832     4.794626 
    2600    1.0016997   0.45348753    20.515833    22.471869    4.7953631 
    2700    1.0005896   0.45418145    20.516124    22.471189    4.7942879 
    2800    1.0015586   0.45343146    20.515701     22.47147    4.7937025 
    2900    1.0015037   0.45403344    20.515704    22.471992    4.7938618 
    3000    1.0015746   0.45395768    20.516244    22.472563    4.7879778 
    3100    1.0012264   0.45443163    20.516367    22.472638    4.7867871 
    3200    1.0022159   0.45300815    20.516454    22.472786    4.7909872 
    3300    1.0010774   0.45475466    20.516295    22.472665    4.7993408 
    3400    1.0016592   0.45339691    20.516277    22.472162    4.7984189 
    3500    1.0019345   0.45409567    20.515459    22.472455    4.7848445 
    3600    1.0019143   0.45397202    20.515737     22.47258    4.7944157 
    3700    1.0012898    0.4541732    20.516272    22.472379    4.7921102 
    3800    1.0004751   0.45468564    20.516139    22.471537    4.7965699 
    3900    1.0020817    0.4537825    20.515184    22.472088    4.7873035 
    4000    1.0014572   0.45364239    20.516178    22.472005    4.7981226 
    4100    1.0010128    0.4546095    20.515607    22.471735    4.7967555 
    4200    1.0012531   0.45441906    20.516228    22.472526    4.8099991 
    4300    1.0016597   0.45455544    20.515941    22.472985    4.7955532 
    4400    1.0017192   0.45376325    20.516268    22.472609    4.7947504 
    4500    1.0010157   0.45470762    20.516553    22.472784    4.7978156 
    4600    1.0015471   0.45436675    20.516466    22.473153    4.7937535 
    4700    1.0018252    0.4540669    20.515657    22.472461    4.8074115 
    4800    1.0017083   0.45521547    20.516061    22.473838    4.8005194 
    4900    1.0006796   0.45515353    20.516301    22.472473     4.795895 
    5000    1.0021142   0.45386507    20.516135    22.473171    4.7862153 
    5100    1.0015057   0.45371694     20.51619    22.472165    4.7957004 
    5200    1.0016112   0.45340522    20.515785    22.471607    4.7932836 
    5300    1.0009077   0.45364605    20.516416    22.471423     4.790675 
    5400    1.0016682   0.45275533    20.515832    22.471089    4.7885915 
    5500    1.0017358   0.45386787    20.515421    22.471892    4.7920954 
    5600    1.0007436   0.45345506    20.516577    22.471146    4.7849626 
    5700    1.0010644   0.45396766      20.5164    22.471964    4.7909399 
    5800    1.0018032    0.4538075    20.515839     22.47235    4.7945211 
    5900     1.001651   0.45466756    20.515758    22.472901     4.808872 
    6000    1.0024074    0.4543466    20.515596    22.473553    4.7967262 
    6100    1.0018452   0.45463723     20.51558    22.472984    4.7890737 
    6200     1.002113   0.45375682    20.516195     22.47312    4.7961331 
    6300     1.001504   0.45460784    20.516118    22.472981    4.8047493 
    6400    1.0019695   0.45348801    20.516292    22.472734    4.7966016 
    6500    1.0021204   0.45380808    20.515849    22.472836    4.7969898 
    6600    1.0020738   0.45377194    20.516036    22.472917    4.7839934 
    6700     1.001058   0.45476319    20.516009    22.472359     4.791638 
    6800    1.0017825   0.45400096    20.516373    22.473047    4.7870848 
    6900    1.0008444   0.45497119    20.516205    22.472442    4.7969485 
    7000    1.0013966   0.45366805    20.516275    22.472037    4.7900562 
    7100    1.0020287   0.45336991    20.515898     22.47231    4.7894427 
    7200    1.0014854   0.45396439    20.516325    22.472516    4.7800096 
    7300    1.0011874   0.45357751    20.517028    22.472385    4.7921815 
    7400    1.0014778   0.45413113    20.515056    22.471403    4.7902756 
    7500    1.0014988   0.45348959    20.515983     22.47172    4.7912469 
    7600    1.0012051   0.45393104    20.516191    22.471929    4.7909123 
    7700    1.0011058   0.45396776    20.516292    22.471918     4.801082 
    7800    1.0020809   0.45360901    20.515245    22.471975    4.7894919 
    7900    1.0011984   0.45331861    20.516948    22.472063     4.798336 
    8000    1.0019252   0.45339406    20.516005    22.472287    4.7963379 
    8100    1.0011393   0.45467503     20.51616    22.472543    4.8041565 
    8200     1.001254   0.45453909    20.515834    22.472254    4.8047799 
    8300    1.0016845   0.45355999    20.515687    22.471773    4.7890058 
    8400    1.0015878   0.45362951    20.516129    22.472139    4.7840488 
    8500    1.0013631   0.45388274    20.515794    22.471721    4.8040508 
    8600    1.0005997   0.45391518    20.516844    22.471658    4.7882965 
    8700    1.0009689   0.45385903    20.515856    22.471168    4.7940271 
    8800    1.0013122   0.45309969    20.516929    22.471996    4.7836848 
    8900    1.0014323   0.45407738     20.51551    22.471735    4.7953727 
    9000    1.0001904   0.45467212    20.516283     22.47124    4.7953602 
    9100    1.0017163    0.4535884      20.5155    22.471663    4.7957431 
    9200    1.0010069   0.45393333    20.516481    22.471924     4.794951 
    9300    1.0018014   0.45394532    20.515657    22.472303    4.7889688 
    9400    1.0011781   0.45434468     20.51632    22.472431    4.7898476 
    9500    1.0012763    0.4540942    20.515719    22.471726    4.7893242 
    9600    1.0016215   0.45356756    20.515626    22.471625     4.784439 
    9700    1.0012254   0.45370026    20.516481    22.472019    4.7900215 
    9800    1.0016815   0.45434137    20.515442    22.472304    4.7935632 
    9900    1.0019054   0.45390649    20.515895    22.472659    4.7987047 
   10000    1.0014043   0.45417736    20.516433    22.472716    4.7926379 
Loop time of 1501.46 on 4 procs for 10000 steps with 2048000 atoms

Performance: 6905.258 tau/day, 6.660 timesteps/s
99.3% CPU use with 4 MPI tasks x 1 OpenMP threads

MPI task timing breakdown:
Section |  min time  |  avg time  |  max time  |%varavg| %total
---------------------------------------------------------------
Pair    | 356.64     | 358.15     | 359.02     |   5.0 | 23.85
Bond    | 71.847     | 72.214     | 72.756     |   4.3 |  4.81
Neigh   | 367.73     | 369.17     | 370.64     |   7.5 | 24.59
Comm    | 381.63     | 382.38     | 383.59     |   4.0 | 25.47
Output  | 0.13705    | 0.15026    | 0.1598     |   2.3 |  0.01
Modify  | 273.54     | 276.02     | 278.65     |  13.3 | 18.38
Other   |            | 43.39      |            |       |  2.89

Nlocal:         512000 ave      512139 max      511796 min
Histogram: 1 0 0 0 0 0 1 1 0 1
Nghost:        60021.8 ave       60131 max       59914 min
Histogram: 1 0 0 1 0 0 1 0 0 1
Neighs:    2.99788e+06 ave 2.99959e+06 max 2.99432e+06 min
Histogram: 1 0 0 0 0 0 0 0 2 1

Total # of neighbors = 11991515
Ave neighs/atom = 5.8552319
Ave special neighs/atom = 1.98
Neighbor list builds = 2970
Dangerous builds = 0
Total wall time: 0:25:02
Intel(R) VTune(TM) Profiler 2022.2.0 collection completed successfully. Use the "aps --report /home/ubuntu/lammps/bench/aps_result_20220703" command to generate textual and HTML reports for the profiling session.
