LAMMPS (7 Jan 2022)
  using 1 OpenMP thread(s) per MPI task
Reading data file ...
  orthogonal box = (-16.796 -16.796 -16.796) to (16.796 16.796 16.796)
  2 by 2 by 2 MPI processor grid
  reading atoms ...
  32000 atoms
  reading velocities ...
  32000 velocities
  scanning bonds ...
  1 = max bonds/atom
  reading bonds ...
  31680 bonds
Finding 1-2 1-3 1-4 neighbors ...
  special bond factors lj:    0        1        1       
  special bond factors coul:  0        1        1       
     2 = max # of 1-2 neighbors
     2 = max # of special neighbors
  special bonds CPU = 0.002 seconds
  read_data CPU = 0.115 seconds
Replicating atoms ...
  orthogonal box = (-16.796 -16.796 -16.796) to (83.98 83.98 83.98)
  2 by 2 by 2 MPI processor grid
  864000 atoms
  855360 bonds
Finding 1-2 1-3 1-4 neighbors ...
  special bond factors lj:    0        1        1       
  special bond factors coul:  0        1        1       
     2 = max # of 1-2 neighbors
     2 = max # of special neighbors
  special bonds CPU = 0.030 seconds
  replicate CPU = 0.068 seconds
----------------------------------------------------------
Using INTEL Package without Coprocessor.
Compiler: Intel Classic C++ 20.21.5 / Intel(R) C++ g++ 9.3 mode
SIMD compiler directives: Enabled
Precision: double
----------------------------------------------------------
  generated 0 of 0 mixed pair_coeff terms from geometric mixing rule
Neighbor list info ...
  update every 1 steps, delay 1 steps, check yes
  max neighbors/atom: 2000, page size: 100000
  master list distance cutoff = 1.52
  ghost atom cutoff = 1.52
  binsize = 0.76, bins = 133 133 133
  1 neighbor lists, perpetual/occasional/extra = 1 0 0
  (1) pair lj/cut/intel, perpetual
      attributes: half, newton on, intel
      pair build: half/bin/newton/intel
      stencil: half/bin/3d
      bin: intel
Setting up Verlet run ...
  Unit style    : lj
  Current step  : 0
  Time step     : 0.012
WARNING: Communication cutoff 1.52 is shorter than a bond length based estimate of 1.855. This may lead to errors. (../comm.cpp:723)
Per MPI rank memory allocation (min/avg/max) = 954.7 | 955.4 | 956 Mbytes
Step Temp E_pair E_mol TotEng Press 
       0   0.97026852   0.44484087    20.494523    22.394765    4.6721833 
     100   0.97391126   0.44174942    20.502485      22.4051    4.6899019 
Loop time of 3.08602 on 8 procs for 100 steps with 864000 atoms

Performance: 33596.654 tau/day, 32.404 timesteps/s
98.9% CPU use with 8 MPI tasks x 1 OpenMP threads

MPI task timing breakdown:
Section |  min time  |  avg time  |  max time  |%varavg| %total
---------------------------------------------------------------
Pair    | 0.57059    | 0.59697    | 0.6176     |   1.8 | 19.34
Bond    | 0.16958    | 0.17919    | 0.18445    |   1.2 |  5.81
Neigh   | 0.79495    | 0.79645    | 0.79827    |   0.1 | 25.81
Comm    | 0.66087    | 0.68792    | 0.72755    |   2.5 | 22.29
Output  | 0.00027112 | 0.00028345 | 0.00030139 |   0.0 |  0.01
Modify  | 0.64781    | 0.68459    | 0.7195     |   2.5 | 22.18
Other   |            | 0.1406     |            |       |  4.56

Nlocal:         108000 ave      108119 max      107876 min
Histogram: 2 1 1 0 0 0 0 1 0 3
Nghost:        20757.2 ave       20883 max       20677 min
Histogram: 1 0 2 1 2 1 0 0 0 1
Neighs:         632788 ave      634655 max      631220 min
Histogram: 3 0 1 0 0 0 1 1 1 1

Total # of neighbors = 5062300
Ave neighs/atom = 5.8591435
Ave special neighs/atom = 1.98
Neighbor list builds = 26
Dangerous builds = 0
Total wall time: 0:00:03
Intel(R) VTune(TM) Profiler 2022.2.0 collection completed successfully. Use the "aps --report /home/ubuntu/lammps/bench/aps_result_20220601" command to generate textual and HTML reports for the profiling session.
