LAMMPS (7 Jan 2022)
  using 1 OpenMP thread(s) per MPI task
Reading data file ...
  orthogonal box = (-16.796 -16.796 -16.796) to (16.796 16.796 16.796)
  2 by 2 by 4 MPI processor grid
  reading atoms ...
  32000 atoms
  reading velocities ...
  32000 velocities
  scanning bonds ...
  1 = max bonds/atom
  reading bonds ...
  31680 bonds
Finding 1-2 1-3 1-4 neighbors ...
  special bond factors lj:    0        1        1       
  special bond factors coul:  0        1        1       
     2 = max # of 1-2 neighbors
     2 = max # of special neighbors
  special bonds CPU = 0.002 seconds
  read_data CPU = 0.113 seconds
Replicating atoms ...
  orthogonal box = (-16.796 -16.796 -16.796) to (83.98 83.98 83.98)
  2 by 2 by 4 MPI processor grid
  864000 atoms
  855360 bonds
Finding 1-2 1-3 1-4 neighbors ...
  special bond factors lj:    0        1        1       
  special bond factors coul:  0        1        1       
     2 = max # of 1-2 neighbors
     2 = max # of special neighbors
  special bonds CPU = 0.016 seconds
  replicate CPU = 0.043 seconds
----------------------------------------------------------
Using INTEL Package without Coprocessor.
Compiler: Intel Classic C++ 20.21.5 / Intel(R) C++ g++ 9.3 mode
SIMD compiler directives: Enabled
Precision: single
----------------------------------------------------------
  generated 0 of 0 mixed pair_coeff terms from geometric mixing rule
Neighbor list info ...
  update every 1 steps, delay 1 steps, check yes
  max neighbors/atom: 2000, page size: 100000
  master list distance cutoff = 1.52
  ghost atom cutoff = 1.52
  binsize = 0.76, bins = 133 133 133
  1 neighbor lists, perpetual/occasional/extra = 1 0 0
  (1) pair lj/cut/intel, perpetual
      attributes: half, newton on, intel
      pair build: half/bin/newton/intel
      stencil: half/bin/3d
      bin: intel
Setting up Verlet run ...
  Unit style    : lj
  Current step  : 0
  Time step     : 0.012
WARNING: Communication cutoff 1.52 is shorter than a bond length based estimate of 1.855. This may lead to errors. (../comm.cpp:723)
Per MPI rank memory allocation (min/avg/max) = 478.9 | 479.6 | 480.3 Mbytes
Step Temp E_pair E_mol TotEng Press 
       0   0.97026852   0.44484064     20.49418    22.394422     4.672187 
     100    0.9724675   0.44257879    20.502552     22.40383    4.6818741 
Loop time of 1.86524 on 16 procs for 100 steps with 864000 atoms

Performance: 55585.253 tau/day, 53.612 timesteps/s
98.3% CPU use with 16 MPI tasks x 1 OpenMP threads

MPI task timing breakdown:
Section |  min time  |  avg time  |  max time  |%varavg| %total
---------------------------------------------------------------
Pair    | 0.43195    | 0.4479     | 0.45275    |   0.7 | 24.01
Bond    | 0.073232   | 0.076441   | 0.078374   |   0.4 |  4.10
Neigh   | 0.42163    | 0.4237     | 0.42523    |   0.2 | 22.72
Comm    | 0.42716    | 0.43629    | 0.45713    |   1.0 | 23.39
Output  | 0.00017186 | 0.00024081 | 0.00094187 |   0.0 |  0.01
Modify  | 0.37319    | 0.39143    | 0.40397    |   1.2 | 20.99
Other   |            | 0.08925    |            |       |  4.79

Nlocal:          54000 ave       54130 max       53831 min
Histogram: 1 0 1 0 4 4 2 1 1 2
Nghost:        14058.4 ave       14152 max       13988 min
Histogram: 3 2 1 2 2 2 0 1 1 2
Neighs:         316328 ave      317684 max      314722 min
Histogram: 1 1 1 1 3 2 2 3 0 2

Total # of neighbors = 5061246
Ave neighs/atom = 5.8579236
Ave special neighs/atom = 1.98
Neighbor list builds = 26
Dangerous builds = 0
Total wall time: 0:00:02
Intel(R) VTune(TM) Profiler 2022.2.0 collection completed successfully. Use the "aps --report /home/ubuntu/lammps/bench/aps_result_20220601" command to generate textual and HTML reports for the profiling session.
