LAMMPS (7 Jan 2022)
  using 1 OpenMP thread(s) per MPI task
Reading data file ...
  orthogonal box = (-16.796 -16.796 -16.796) to (16.796 16.796 16.796)
  4 by 4 by 4 MPI processor grid
  reading atoms ...
  32000 atoms
  reading velocities ...
  32000 velocities
  scanning bonds ...
  1 = max bonds/atom
  reading bonds ...
  31680 bonds
Finding 1-2 1-3 1-4 neighbors ...
  special bond factors lj:    0        1        1       
  special bond factors coul:  0        1        1       
     2 = max # of 1-2 neighbors
     2 = max # of special neighbors
  special bonds CPU = 0.009 seconds
  read_data CPU = 0.118 seconds
----------------------------------------------------------
Using INTEL Package without Coprocessor.
Compiler: Intel Classic C++ 20.21.5 / Intel(R) C++ g++ 9.3 mode
SIMD compiler directives: Enabled
Precision: mixed
----------------------------------------------------------
  generated 0 of 0 mixed pair_coeff terms from geometric mixing rule
Neighbor list info ...
  update every 1 steps, delay 1 steps, check yes
  max neighbors/atom: 2000, page size: 100000
  master list distance cutoff = 1.52
  ghost atom cutoff = 1.52
  binsize = 0.76, bins = 45 45 45
  1 neighbor lists, perpetual/occasional/extra = 1 0 0
  (1) pair lj/cut/intel, perpetual
      attributes: half, newton on, intel
      pair build: half/bin/newton/intel
      stencil: half/bin/3d
      bin: intel
Setting up Verlet run ...
  Unit style    : lj
  Current step  : 0
  Time step     : 0.012
WARNING: Communication cutoff 1.52 is shorter than a bond length based estimate of 1.855. This may lead to errors. (../comm.cpp:723)
Per MPI rank memory allocation (min/avg/max) = 8.383 | 8.562 | 8.733 Mbytes
Step Temp E_pair E_mol TotEng Press 
       0   0.97029772   0.44484085    20.494523    22.394765    4.6721835 
     100   0.96979859   0.44460609    20.502859    22.402118    4.6865188 
     200   0.97694011   0.44769287    20.502057    22.415114    4.7199343 
     300   0.98536237   0.44480223    20.502993    22.425793    4.7561324 
     400   0.98354655   0.44822808      20.5037    22.427202    4.6930454 
     500   0.98786558   0.44560028    20.503285    22.430637     4.700216 
     600    0.9870894   0.45373942    20.508016    22.442343    4.7160309 
     700   0.98635288   0.45388531    20.514049    22.447417    4.7420264 
     800   0.99363851   0.45021301    20.511053    22.451677      4.73622 
     900   0.99958481   0.44717533    20.511348    22.457853    4.7341182 
    1000   0.99687653   0.45435472    20.511304    22.460927    4.7089038 
    1100   0.99697907    0.4540936    20.514591    22.464107    4.7934163 
    1200    0.9974889   0.44937807    20.515909    22.461473    4.7326914 
    1300   0.99420903   0.45544996    20.512862    22.459579    4.8002693 
    1400    1.0003653   0.44246513    20.514878    22.457844    4.7870526 
    1500   0.99457053   0.45230909     20.51227    22.456388     4.774094 
    1600   0.99869329   0.44488909    20.518457     22.46134    4.6940373 
    1700   0.99320399   0.45879482    20.518382    22.466936    4.7835008 
    1800   0.99438677   0.45189801    20.521022    22.464453    4.7719224 
    1900   0.99335268   0.45145834    20.520917    22.462358    4.7771124 
    2000   0.99340972   0.44744589     20.51986    22.457374     4.783525 
    2100   0.98872109   0.45223422    20.519062    22.454331    4.7118961 
    2200   0.99657402   0.44819901    20.509683    22.452696    4.8308429 
    2300    0.9967862   0.44574188    20.518804    22.459678    4.7511626 
    2400   0.99323382   0.45004673    20.515906    22.455756    4.8004132 
    2500   0.99592134   0.44939647    20.513539    22.456771    4.7392413 
    2600   0.99506915   0.45773381     20.51061    22.460901    4.7634074 
    2700   0.99768072   0.45351652    20.511696    22.461687    4.7711761 
    2800   0.99380529   0.45661973    20.519134    22.466415    4.8312963 
    2900   0.99858815   0.45134468    20.513403    22.462583    4.8078752 
    3000   0.99819146   0.45340572    20.512485    22.463131    4.8469042 
    3100    0.9956732   0.45549167    20.512936    22.461891    4.8380098 
    3200   0.99176198   0.44876557    20.521438      22.4578    4.7797545 
    3300   0.99741372   0.44656948    20.514122    22.456765    4.7604795 
    3400   0.99482335   0.45621661    20.514877    22.463282    4.7203933 
    3500   0.99271486   0.45852727    20.514574    22.462127    4.7800322 
    3600   0.99791197   0.45414651    20.512367    22.463335     4.809086 
    3700   0.99956727   0.45144396    20.517176    22.467924    4.7522026 
    3800     1.001847    0.4570442    20.511457    22.471225     4.774697 
    3900    1.0065722   0.45226083      20.5181    22.480172    4.8149044 
    4000    1.0037589   0.45497368    20.514959    22.475524    4.8665376 
    4100   0.99967948   0.45912496    20.513626    22.472223    4.8840534 
    4200    1.0014883   0.45411459    20.517766    22.474066    4.8747111 
    4300    1.0013812   0.45558167    20.514917    22.472524    4.8733476 
    4400    1.0069616   0.44645477    20.512855    22.469705    4.6756767 
    4500   0.99835098   0.45403782      20.5117    22.463218    4.7708364 
    4600   0.99374238   0.45579367    20.517368    22.463729    4.7797012 
    4700   0.99407491   0.45390232    20.516331    22.461299    4.7465491 
    4800   0.99746778   0.44708806    20.517526    22.460769    4.6793902 
    4900    0.9992476   0.45738923    20.510332    22.466546    4.7983263 
    5000    0.9976614   0.45663953    20.520062    22.473146    4.8091207 
    5100    1.0047902   0.45767225    20.513066    22.477877    4.7961868 
    5200    1.0081753   0.45319733    20.513994    22.479407    4.7043564 
    5300    1.0067499    0.4601577    20.513974    22.484209    4.7309623 
    5400    1.0077009   0.45458341    20.518327    22.484414    4.7726926 
    5500    1.0069786   0.45458762    20.518949    22.483957      4.80443 
    5600    1.0029353   0.45922602    20.520369     22.48395    4.8552106 
    5700   0.99727199   0.46313912    20.523313    22.482313    4.9393341 
    5800   0.99851391   0.45587848    20.519348     22.47295      4.75355 
    5900   0.99940403    0.4537492    20.521147    22.473955    4.7810053 
    6000    1.0046573   0.45182011    20.508898    22.467657    4.7773404 
    6100   0.99913928   0.44865112     20.51706    22.464373    4.8520822 
    6200    1.0000617   0.45139391     20.51538    22.466819    4.7942874 
    6300    1.0002991   0.45067679    20.517337    22.468415    4.7759548 
    6400    1.0021251   0.45947923    20.506332    22.468952     4.797317 
    6500    1.0018506   0.45074878    20.513433    22.466911    4.7578523 
    6600    1.0024562   0.45471686    20.507897    22.466251     4.750171 
    6700   0.99672732   0.45208166    20.519414     22.46654     4.763379 
    6800    1.0028105   0.45276704    20.512374     22.46931    4.8484903 
    6900   0.99776944   0.45904836    20.516485    22.472141    4.8730635 
    7000    1.0083371   0.45421464    20.515763    22.482436    4.8702906 
    7100    1.0072451   0.45714994    20.519406    22.487377    4.8166411 
    7200    1.0062887    0.4538067    20.523678    22.486871    4.7848368 
    7300    1.0080935   0.45430527    20.518489    22.484887    4.7718846 
    7400    1.0092195   0.45997162    20.510578    22.484332    4.8224479 
    7500     1.013764   0.45009323    20.514916    22.485607    4.7689744 
    7600    1.0019868   0.45663122    20.522786    22.482351    4.8686738 
    7700    1.0053665   0.44968788    20.524544    22.482234    4.7743732 
    7800    1.0046899   0.45316626    20.520035    22.480189    4.7855843 
    7900     1.007684   0.45263011    20.518358    22.482467    4.8480469 
    8000    1.0033052   0.45802979    20.515004    22.477944    4.8137498 
    8100    1.0054719   0.46443174    20.521273    22.493866    4.8465403 
    8200    1.0075449   0.45964322    20.525827    22.496741     4.838349 
    8300    1.0079551   0.45623875    20.523499    22.491623    4.8800352 
    8400    1.0070591   0.45848399    20.522375    22.491401    4.8855506 
    8500    1.0092265   0.45799595    20.522588    22.494376    4.8293413 
    8600    1.0094271   0.46272702    20.517858    22.494679    4.7850191 
    8700     1.013432   0.44679551    20.518746    22.485642    4.7875426 
    8800    1.0033759   0.45939584    20.520589    22.485001    4.7908314 
    8900    1.0030429   0.45630797    20.523768    22.484594    4.7368924 
    9000    1.0075923   0.45831207    20.519657     22.48931    4.8477163 
    9100    1.0109382   0.45838637    20.510634     22.48538    4.7767391 
    9200   0.99906368   0.46236479    20.521533    22.482447    4.7683098 
    9300   0.99372502   0.46047406    20.524445     22.47546    4.8312847 
    9400    1.0014636   0.45674906    20.514586    22.473484     4.863513 
    9500     1.004935   0.45244111     20.51201    22.471807    4.7544683 
    9600    1.0057824   0.45576152    20.516911    22.481299    4.8464594 
    9700    1.0022886   0.45294624     20.52245    22.478782    4.7794173 
    9800    1.0057157   0.45811198    20.514999    22.481638    4.7825776 
    9900     1.004793   0.45477415    20.516149    22.478066    4.8882109 
   10000    1.0041444   0.45492323     20.51474    22.475833    4.7632063 
Loop time of 2.02607 on 64 procs for 10000 steps with 32000 atoms

Performance: 5117302.560 tau/day, 4935.670 timesteps/s
97.0% CPU use with 64 MPI tasks x 1 OpenMP threads

MPI task timing breakdown:
Section |  min time  |  avg time  |  max time  |%varavg| %total
---------------------------------------------------------------
Pair    | 0.35972    | 0.39784    | 0.43252    |   3.9 | 19.64
Bond    | 0.061036   | 0.067164   | 0.072877   |   1.5 |  3.31
Neigh   | 0.48555    | 0.48836    | 0.49058    |   0.2 | 24.10
Comm    | 0.569      | 0.61739    | 0.66637    |   3.5 | 30.47
Output  | 0.003208   | 0.003902   | 0.0047436  |   0.5 |  0.19
Modify  | 0.27716    | 0.30057    | 0.31527    |   3.0 | 14.84
Other   |            | 0.1508     |            |       |  7.44

Nlocal:            500 ave         516 max         488 min
Histogram: 3 4 15 6 5 21 5 2 1 2
Nghost:        766.031 ave         787 max         749 min
Histogram: 4 7 10 7 7 14 4 6 3 2
Neighs:        2930.41 ave        3086 max        2830 min
Histogram: 8 7 6 12 10 13 4 1 1 2

Total # of neighbors = 187546
Ave neighs/atom = 5.8608125
Ave special neighs/atom = 1.98
Neighbor list builds = 2512
Dangerous builds = 0
Total wall time: 0:00:02
Intel(R) VTune(TM) Profiler 2022.2.0 collection completed successfully. Use the "aps --report /home/ubuntu/lammps/bench/aps_result_20220703" command to generate textual and HTML reports for the profiling session.
