LAMMPS (7 Jan 2022)
  using 1 OpenMP thread(s) per MPI task
Reading data file ...
  orthogonal box = (0 0 0) to (40 20 37.2886)
  1 by 1 by 1 MPI processor grid
  reading atoms ...
  32000 atoms
  reading velocities ...
  32000 velocities
  read_data CPU = 0.116 seconds
Replicating atoms ...
  orthogonal box = (0 0 0) to (160 80 37.292229)
  1 by 1 by 1 MPI processor grid
  512000 atoms
  replicate CPU = 0.048 seconds
14592 atoms in group bottom
497408 atoms in group active
  generated 0 of 1 mixed pair_coeff terms from geometric mixing rule
Neighbor list info ...
  update every 1 steps, delay 0 steps, check yes
  max neighbors/atom: 2000, page size: 100000
  master list distance cutoff = 1.1
  ghost atom cutoff = 1.1
  binsize = 0.55, bins = 291 146 68
  1 neighbor lists, perpetual/occasional/extra = 1 0 0
  (1) pair gran/hooke/history, perpetual
      attributes: half, newton off, size, history
      pair build: half/size/bin/newtoff
      stencil: full/bin/3d
      bin: standard
Setting up Verlet run ...
  Unit style    : lj
  Current step  : 0
  Time step     : 0.0001
Per MPI rank memory allocation (min/avg/max) = 222.9 | 222.9 | 222.9 Mbytes
Step Atoms KinEng c_1 Volume 
       0   512000     12546226    25618.021    477340.53 
     100   512000     12548673    25137.549    477355.32 
     200   512000     12550763    25181.814    477379.69 
     300   512000     12553016    25287.588    477403.64 
     400   512000     12555331     25155.81     477426.4 
     500   512000     12557308    25024.766    477451.12 
     600   512000     12559542    25031.218    477475.72 
     700   512000     12562058    24839.354    477499.13 
     800   512000     12564644    24883.534    477521.34 
     900   512000     12567371    24734.109    477542.35 
    1000   512000     12569155    24637.876    477562.17 
    1100   512000     12571241    24540.829    477580.79 
    1200   512000     12573153    24734.936    477598.21 
    1300   512000     12574874    24798.965    477614.44 
    1400   512000     12576185    24845.117    477629.47 
    1500   512000     12577727    25058.358     477643.3 
    1600   512000     12579054    25173.339    477655.94 
    1700   512000     12580301    25484.708    477667.37 
    1800   512000     12581199    25696.549    477674.33 
    1900   512000     12582014    25829.192    477683.78 
    2000   512000     12582934    25901.782    477692.02 
    2100   512000     12583797    26187.377    477699.07 
    2200   512000     12584843    26251.942    477704.93 
    2300   512000     12585833    26226.246    477709.58 
    2400   512000     12587039    26137.391    477713.04 
    2500   512000     12588006    26111.868     477715.3 
    2600   512000     12588723    26239.127    477716.37 
    2700   512000     12589359     26388.57     477717.1 
    2800   512000     12589722    26430.413    477719.76 
    2900   512000     12590189    26476.956    477721.23 
    3000   512000     12590454    26492.227     477721.5 
    3100   512000     12590913     26637.34    477720.57 
    3200   512000     12591499    26799.768    477718.45 
    3300   512000     12592573    26778.187    477715.13 
    3400   512000     12593702    26712.018    477710.66 
    3500   512000     12594872    26635.666    477705.14 
    3600   512000     12596015     26580.24    477698.49 
    3700   512000     12596990    26539.472    477690.72 
    3800   512000     12597755    26558.966    477681.53 
    3900   512000     12598410    26628.797    477671.15 
    4000   512000     12599080    26642.776    477672.87 
    4100   512000     12599567    26580.561     477677.9 
    4200   512000     12599951    26586.741    477681.96 
    4300   512000     12600260    26526.916    477684.82 
    4400   512000     12600426    26551.641    477686.49 
    4500   512000     12600566      26615.5    477686.96 
    4600   512000     12600753    26720.304    477686.23 
    4700   512000     12601020     26758.52     477684.3 
    4800   512000     12601284    26832.413    477681.18 
    4900   512000     12601538    26991.201    477676.86 
    5000   512000     12601963    27111.464    477671.35 
    5100   512000     12602437    27213.113    477665.13 
    5200   512000     12602995    27362.432    477657.87 
    5300   512000     12603674    27436.244    477649.41 
    5400   512000     12604403    27567.313    477639.96 
    5500   512000     12605222    27620.059    477629.47 
    5600   512000     12606095    27601.181    477617.73 
    5700   512000     12606949     27584.26    477604.97 
    5800   512000     12607926    27567.064    477597.26 
    5900   512000     12608901    27553.534    477591.83 
    6000   512000     12609961    27499.725    477585.28 
    6100   512000     12611072    27463.791    477577.59 
    6200   512000     12612190    27417.146    477568.78 
    6300   512000     12613338    27334.394    477558.85 
    6400   512000     12614513    27255.199    477552.84 
    6500   512000     12615797    27144.726    477553.39 
    6600   512000     12617155    27081.965    477554.49 
    6700   512000     12618588    26999.042    477561.33 
    6800   512000     12619971    26898.151    477567.05 
    6900   512000     12621416    26807.248    477571.68 
    7000   512000     12622807    26720.345    477575.22 
    7100   512000     12624147    26621.227    477577.56 
    7200   512000     12625372    26588.533     477578.7 
    7300   512000     12626539    26553.524    477578.65 
    7400   512000     12627594    26498.122     477577.4 
    7500   512000     12628507    26519.655    477574.95 
    7600   512000     12629462    26509.244    477571.31 
    7700   512000     12630330      26500.7    477566.47 
    7800   512000     12631060    26531.593    477560.56 
    7900   512000     12631684    26533.128    477553.58 
    8000   512000     12632195    26584.793    477545.47 
    8100   512000     12632670    26626.579    477536.23 
    8200   512000     12633035    26716.939    477525.87 
    8300   512000     12633483     26793.53    477514.37 
    8400   512000     12633855    26838.325    477501.75 
    8500   512000     12634147    26842.995    477488.01 
    8600   512000     12634352    26891.594    477473.13 
    8700   512000     12634418    26975.658    477457.13 
    8800   512000     12634440     27046.25       477440 
    8900   512000     12634425     27117.97    477421.74 
    9000   512000     12634226     27190.68    477402.36 
    9100   512000     12633973    27272.445    477381.84 
    9200   512000     12633641     27324.88     477360.2 
    9300   512000     12633229    27436.275    477337.43 
    9400   512000     12632834    27549.579    477313.54 
    9500   512000     12632385    27609.015    477288.52 
    9600   512000     12632034    27694.944    477262.36 
    9700   512000     12631704    27673.844    477235.09 
    9800   512000     12631390    27692.149    477219.38 
    9900   512000     12631169    27650.133     477230.5 
   10000   512000     12630925    27665.165    477240.49 
Loop time of 541.409 on 1 procs for 10000 steps with 512000 atoms

Performance: 159.584 tau/day, 18.470 timesteps/s
100.0% CPU use with 1 MPI tasks x 1 OpenMP threads

MPI task timing breakdown:
Section |  min time  |  avg time  |  max time  |%varavg| %total
---------------------------------------------------------------
Pair    | 297.45     | 297.45     | 297.45     |   0.0 | 54.94
Neigh   | 73.194     | 73.194     | 73.194     |   0.0 | 13.52
Comm    | 9.4383     | 9.4383     | 9.4383     |   0.0 |  1.74
Output  | 0.28092    | 0.28092    | 0.28092    |   0.0 |  0.05
Modify  | 124.41     | 124.41     | 124.41     |   0.0 | 22.98
Other   |            | 36.63      |            |       |  6.77

Nlocal:         512000 ave      512000 max      512000 min
Histogram: 1 0 0 0 0 0 0 0 0 0
Nghost:          21383 ave       21383 max       21383 min
Histogram: 1 0 0 0 0 0 0 0 0 0
Neighs:     1.7923e+06 ave  1.7923e+06 max  1.7923e+06 min
Histogram: 1 0 0 0 0 0 0 0 0 0

Total # of neighbors = 1792299
Ave neighs/atom = 3.500584
Neighbor list builds = 297
Dangerous builds = 0
Total wall time: 0:09:02
Intel(R) VTune(TM) Profiler 2022.2.0 collection completed successfully. Use the "aps --report /home/ubuntu/lammps/bench/aps_result_20220703" command to generate textual and HTML reports for the profiling session.
