LAMMPS (7 Jan 2022)
  using 1 OpenMP thread(s) per MPI task
Reading data file ...
  orthogonal box = (-16.796 -16.796 -16.796) to (16.796 16.796 16.796)
  1 by 2 by 2 MPI processor grid
  reading atoms ...
  32000 atoms
  reading velocities ...
  32000 velocities
  scanning bonds ...
  1 = max bonds/atom
  reading bonds ...
  31680 bonds
Finding 1-2 1-3 1-4 neighbors ...
  special bond factors lj:    0        1        1       
  special bond factors coul:  0        1        1       
     2 = max # of 1-2 neighbors
     2 = max # of special neighbors
  special bonds CPU = 0.002 seconds
  read_data CPU = 0.113 seconds
----------------------------------------------------------
Using INTEL Package without Coprocessor.
Compiler: Intel Classic C++ 20.21.5 / Intel(R) C++ g++ 9.3 mode
SIMD compiler directives: Enabled
Precision: double
----------------------------------------------------------
  generated 0 of 0 mixed pair_coeff terms from geometric mixing rule
Neighbor list info ...
  update every 1 steps, delay 1 steps, check yes
  max neighbors/atom: 2000, page size: 100000
  master list distance cutoff = 1.52
  ghost atom cutoff = 1.52
  binsize = 0.76, bins = 45 45 45
  1 neighbor lists, perpetual/occasional/extra = 1 0 0
  (1) pair lj/cut/intel, perpetual
      attributes: half, newton on, intel
      pair build: half/bin/newton/intel
      stencil: half/bin/3d
      bin: intel
Setting up Verlet run ...
  Unit style    : lj
  Current step  : 0
  Time step     : 0.012
WARNING: Communication cutoff 1.52 is shorter than a bond length based estimate of 1.855. This may lead to errors. (../comm.cpp:723)
Per MPI rank memory allocation (min/avg/max) = 72.71 | 72.84 | 73.02 Mbytes
Step Temp E_pair E_mol TotEng Press 
       0   0.97029772   0.44484087    20.494523    22.394765    4.6721833 
     100   0.97492315   0.44270815    20.505449    22.410496    4.7046843 
Loop time of 0.209632 on 4 procs for 100 steps with 32000 atoms

Performance: 494580.141 tau/day, 477.026 timesteps/s
98.6% CPU use with 4 MPI tasks x 1 OpenMP threads

MPI task timing breakdown:
Section |  min time  |  avg time  |  max time  |%varavg| %total
---------------------------------------------------------------
Pair    | 0.046697   | 0.047124   | 0.047491   |   0.1 | 22.48
Bond    | 0.010666   | 0.010914   | 0.011249   |   0.2 |  5.21
Neigh   | 0.058144   | 0.058197   | 0.058287   |   0.0 | 27.76
Comm    | 0.034169   | 0.034605   | 0.035011   |   0.2 | 16.51
Output  | 5.1641e-05 | 5.9165e-05 | 6.845e-05  |   0.0 |  0.03
Modify  | 0.050602   | 0.051007   | 0.051465   |   0.2 | 24.33
Other   |            | 0.007726   |            |       |  3.69

Nlocal:           8000 ave        8045 max        7963 min
Histogram: 1 0 1 0 0 1 0 0 0 1
Nghost:           4174 ave        4196 max        4158 min
Histogram: 1 0 1 0 1 0 0 0 0 1
Neighs:          46897 ave       47399 max       46558 min
Histogram: 1 0 1 1 0 0 0 0 0 1

Total # of neighbors = 187588
Ave neighs/atom = 5.862125
Ave special neighs/atom = 1.98
Neighbor list builds = 25
Dangerous builds = 0
Total wall time: 0:00:00
Intel(R) VTune(TM) Profiler 2022.2.0 collection completed successfully. Use the "aps --report /home/ubuntu/lammps/bench/aps_result_20220601" command to generate textual and HTML reports for the profiling session.
