LAMMPS (7 Jan 2022)
  using 1 OpenMP thread(s) per MPI task
Reading data file ...
  orthogonal box = (-16.796 -16.796 -16.796) to (16.796 16.796 16.796)
  1 by 1 by 1 MPI processor grid
  reading atoms ...
  32000 atoms
  reading velocities ...
  32000 velocities
  scanning bonds ...
  1 = max bonds/atom
  reading bonds ...
  31680 bonds
Finding 1-2 1-3 1-4 neighbors ...
  special bond factors lj:    0        1        1       
  special bond factors coul:  0        1        1       
     2 = max # of 1-2 neighbors
     2 = max # of special neighbors
  special bonds CPU = 0.006 seconds
  read_data CPU = 0.121 seconds
Replicating atoms ...
  orthogonal box = (-16.796 -16.796 -16.796) to (83.98 83.98 83.98)
  1 by 1 by 1 MPI processor grid
  864000 atoms
  855360 bonds
Finding 1-2 1-3 1-4 neighbors ...
  special bond factors lj:    0        1        1       
  special bond factors coul:  0        1        1       
     2 = max # of 1-2 neighbors
     2 = max # of special neighbors
  special bonds CPU = 0.141 seconds
  replicate CPU = 0.226 seconds
----------------------------------------------------------
Using INTEL Package without Coprocessor.
Compiler: Intel Classic C++ 20.21.5 / Intel(R) C++ g++ 9.3 mode
SIMD compiler directives: Enabled
Precision: mixed
----------------------------------------------------------
  generated 0 of 0 mixed pair_coeff terms from geometric mixing rule
Neighbor list info ...
  update every 1 steps, delay 1 steps, check yes
  max neighbors/atom: 2000, page size: 100000
  master list distance cutoff = 1.52
  ghost atom cutoff = 1.52
  binsize = 0.76, bins = 133 133 133
  1 neighbor lists, perpetual/occasional/extra = 1 0 0
  (1) pair lj/cut/intel, perpetual
      attributes: half, newton on, intel
      pair build: half/bin/newton/intel
      stencil: half/bin/3d
      bin: intel
Setting up Verlet run ...
  Unit style    : lj
  Current step  : 0
  Time step     : 0.012
WARNING: Communication cutoff 1.52 is shorter than a bond length based estimate of 1.855. This may lead to errors. (../comm.cpp:723)
Per MPI rank memory allocation (min/avg/max) = 7579 | 7579 | 7579 Mbytes
Step Temp E_pair E_mol TotEng Press 
       0   0.97026852   0.44484092    20.494523    22.394765    4.6721839 
     100   0.97275826   0.44293736    20.501984    22.404057    4.6921619 
     200   0.97672363    0.4434973    20.504323    22.412904    4.7042501 
     300   0.98084185   0.44545842    20.504109    22.420829    4.7212246 
     400   0.98378139   0.44511876    20.507156    22.427945    4.7336897 
     500   0.98585445   0.44679078    20.510007    22.435578    4.7321495 
     600   0.98790014   0.44809195    20.509948    22.439888    4.7454459 
     700   0.99059978   0.44779895    20.509099    22.442796    4.7499491 
     800    0.9900918   0.45076717    20.509943    22.445846    4.7722296 
     900   0.99258458    0.4491761    20.511521    22.449572     4.775099 
    1000   0.99366094   0.44982593     20.51123    22.451546    4.7681353 
    1100   0.99519986   0.45108576    20.512435    22.456319    4.7641112 
    1200   0.99556056   0.45115444    20.513397    22.457891     4.766774 
    1300   0.99545015   0.45058724    20.513761    22.457522    4.7429071 
    1400   0.99551838   0.45212874    20.514526     22.45993    4.7644318 
    1500   0.99716656   0.45165645    20.514209    22.461614    4.7943401 
    1600   0.99666635   0.45293425    20.514127    22.462059    4.7713403 
    1700   0.99793652   0.45236492    20.512991    22.462259    4.7817371 
    1800   0.99750636   0.45290529    20.514661    22.463824    4.7793672 
    1900   0.99894625   0.45251091    20.514977    22.465906    4.7735088 
    2000   0.99931786   0.45156385    20.515263    22.465802     4.779569 
    2100   0.99946661   0.45128777    20.514263    22.464749    4.7734251 
    2200   0.99938251   0.45270773     20.51299     22.46477    4.7755094 
    2300    1.0004667   0.45284218    20.513349    22.466889    4.7856536 
    2400    1.0003791   0.45267091    20.515302     22.46854    4.7733258 
    2500   0.99905356   0.45320412    20.516714    22.468497    4.7921762 
    2600    1.0006678   0.45170032     20.51491     22.46761    4.7743179 
    2700    1.0000804   0.45387987    20.515424    22.469423    4.8032993 
    2800   0.99954592   0.45429678    20.515908    22.469521    4.7849698 
    2900    1.0009487   0.45254255     20.51621    22.470174    4.7741108 
    3000    1.0008771    0.4529092    20.516019    22.470242     4.791588 
    3100    1.0018588   0.45349662    20.515173    22.471456    4.7918315 
    3200    1.0012661   0.45413779    20.514954    22.470989    4.7957606 
    3300    1.0002808   0.45540189    20.515415    22.471236     4.791235 
    3400    1.0016874    0.4537881    20.514946    22.471263    4.8042492 
    3500    1.0002702   0.45434603    20.514753    22.469502    4.7965481 
    3600    1.0003928   0.45332758    20.516042    22.469957    4.7978179 
    3700    1.0004871   0.45409838     20.51538    22.470207    4.7935435 
    3800    1.0015139   0.45447155    20.514175    22.470915    4.8071936 
    3900    1.0009596   0.45406693    20.516068    22.471573    4.7933764 
    4000    1.0016199   0.45302658    20.516363    22.471818    4.7887376 
    4100    1.0006632   0.45397887    20.516076    22.471048    4.7896504 
    4200    1.0011257   0.45403618    20.515206    22.470929    4.7925019 
    4300   0.99956149   0.45588792    20.515498    22.470726    4.8033019 
    4400    1.0012236   0.45408886    20.514832    22.470755    4.7780731 
    4500    1.0006176   0.45323196    20.515824    22.469981    4.7982369 
    4600    1.0001524    0.4545894    20.516834     22.47165    4.8092507 
    4700     1.002462   0.45355005    20.514887    22.472128    4.7809535 
    4800    1.0007593   0.45391543    20.515634    22.470686    4.7905986 
    4900    1.0006957   0.45494451    20.514712    22.470699    4.7959041 
    5000    1.0007058   0.45454792    20.515839    22.471444    4.8114255 
    5100   0.99983854   0.45489698    20.515765    22.470418    4.8052589 
    5200    1.0016533   0.45271505    20.516212    22.471405    4.7916493 
    5300    1.0014407   0.45394133    20.515614    22.471715    4.7803215 
    5400    1.0010269   0.45499299    20.515788     22.47232    4.7904099 
    5500    1.0010997   0.45445175    20.515676    22.471775    4.8052884 
    5600    1.0017882    0.4537281    20.515961     22.47237    4.7819209 
    5700    1.0007591   0.45454136    20.515894    22.471572    4.7914628 
    5800    1.0005862   0.45332393    20.517084    22.471286     4.798228 
    5900    1.0008483   0.45420026    20.514112    22.469583    4.7783713 
    6000    1.0008432   0.45406095     20.51528    22.470604    4.7964046 
    6100    1.0006416   0.45381258    20.515239    22.470012    4.8018903 
    6200     1.000546   0.45388014    20.516098    22.470795    4.7945772 
    6300    1.0004092   0.45462773    20.516516    22.471755    4.7823963 
    6400    1.0008146   0.45383023    20.516853    22.471903    4.7789431 
    6500    1.0005649   0.45456428    20.516659    22.472069    4.7944133 
    6600    1.0020526   0.45388457    20.516187    22.473148    4.8080952 
    6700     1.002026   0.45376083     20.51688    22.473678    4.7931427 
    6800    1.0020929   0.45383202    20.514957    22.471926    4.7886642 
    6900     1.002228    0.4535301     20.51575    22.472621    4.8097614 
    7000    1.0005014   0.45511284    20.516282    22.472145    4.7894967 
    7100    1.0011026   0.45394153    20.515339    22.470933    4.7805227 
    7200    1.0011709   0.45346843    20.515747     22.47097    4.7871475 
    7300    1.0008922    0.4537886    20.515496    22.470621    4.7857286 
    7400    1.0009742   0.45399893    20.516045    22.471504    4.7895853 
    7500    1.0022332   0.45508039     20.51505    22.473478    4.7878992 
    7600     1.001207   0.45366471    20.517642    22.473115    4.7922896 
    7700    1.0010027   0.45302394    20.518283    22.472809    4.8032542 
    7800    1.0014806   0.45423581    20.516605     22.47306    4.7882367 
    7900     1.001086   0.45465178    20.516746    22.473025    4.7856926 
    8000    1.0010766    0.4542124    20.516903    22.472729     4.803258 
    8100    1.0021954   0.45351111    20.516046    22.472849    4.7988906 
    8200    1.0015101   0.45318124    20.516353    22.471797    4.7954918 
    8300    1.0018846   0.45279495    20.516237    22.471857    4.7912242 
    8400    1.0017833   0.45355412    20.515374    22.471601    4.8033288 
    8500    1.0021032    0.4533026    20.516119    22.472574    4.8090514 
    8600    1.0017953   0.45452113     20.51554    22.472752    4.7970042 
    8700    1.0013356   0.45469948    20.515085    22.471786    4.7864926 
    8800     1.001397   0.45427011    20.515697    22.472061    4.8038839 
    8900    1.0015534    0.4547846    20.516735    22.473848    4.8069942 
    9000    1.0010071   0.45495699    20.516333    22.472799    4.7999931 
    9100    1.0010165   0.45397554    20.515756    22.471255    4.8028517 
    9200    1.0011725   0.45388055    20.516112     22.47175    4.7851293 
    9300    1.0017271   0.45387309    20.515927    22.472389    4.7884438 
    9400    1.0018104   0.45192848    20.516014    22.470656    4.7964218 
    9500    1.0005749   0.45291875    20.516129    22.469908    4.7679188 
    9600    1.0012716   0.45335731    20.515054    22.470317    4.7868082 
    9700     1.001878   0.45353737    20.515812    22.472165    4.8016042 
    9800    1.0010574   0.45468103    20.516859    22.473125    4.7892502 
    9900    1.0013943   0.45401812    20.516723    22.472831    4.7918481 
   10000    1.0013901   0.45445237    20.515713    22.472249    4.8121681 
Loop time of 2302.63 on 1 procs for 10000 steps with 864000 atoms

Performance: 4502.673 tau/day, 4.343 timesteps/s
100.0% CPU use with 1 MPI tasks x 1 OpenMP threads

MPI task timing breakdown:
Section |  min time  |  avg time  |  max time  |%varavg| %total
---------------------------------------------------------------
Pair    | 595.25     | 595.25     | 595.25     |   0.0 | 25.85
Bond    | 115.75     | 115.75     | 115.75     |   0.0 |  5.03
Neigh   | 570.59     | 570.59     | 570.59     |   0.0 | 24.78
Comm    | 495.39     | 495.39     | 495.39     |   0.0 | 21.51
Output  | 0.21265    | 0.21265    | 0.21265    |   0.0 |  0.01
Modify  | 460.01     | 460.01     | 460.01     |   0.0 | 19.98
Other   |            | 65.42      |            |       |  2.84

Nlocal:         864000 ave      864000 max      864000 min
Histogram: 1 0 0 0 0 0 0 0 0 0
Nghost:          80727 ave       80727 max       80727 min
Histogram: 1 0 0 0 0 0 0 0 0 0
Neighs:     5.0581e+06 ave  5.0581e+06 max  5.0581e+06 min
Histogram: 1 0 0 0 0 0 0 0 0 0

Total # of neighbors = 5058105
Ave neighs/atom = 5.8542882
Ave special neighs/atom = 1.98
Neighbor list builds = 2735
Dangerous builds = 0
Total wall time: 0:38:23
Intel(R) VTune(TM) Profiler 2022.2.0 collection completed successfully. Use the "aps --report /home/ubuntu/lammps/bench/aps_result_20220703" command to generate textual and HTML reports for the profiling session.
