LAMMPS (7 Jan 2022)
  using 1 OpenMP thread(s) per MPI task
Reading data file ...
  orthogonal box = (-16.796 -16.796 -16.796) to (16.796 16.796 16.796)
  1 by 1 by 2 MPI processor grid
  reading atoms ...
  32000 atoms
  reading velocities ...
  32000 velocities
  scanning bonds ...
  1 = max bonds/atom
  reading bonds ...
  31680 bonds
Finding 1-2 1-3 1-4 neighbors ...
  special bond factors lj:    0        1        1       
  special bond factors coul:  0        1        1       
     2 = max # of 1-2 neighbors
     2 = max # of special neighbors
  special bonds CPU = 0.004 seconds
  read_data CPU = 0.128 seconds
Replicating atoms ...
  orthogonal box = (-16.796 -16.796 -16.796) to (83.98 83.98 83.98)
  1 by 1 by 2 MPI processor grid
  864000 atoms
  855360 bonds
Finding 1-2 1-3 1-4 neighbors ...
  special bond factors lj:    0        1        1       
  special bond factors coul:  0        1        1       
     2 = max # of 1-2 neighbors
     2 = max # of special neighbors
  special bonds CPU = 0.088 seconds
  replicate CPU = 0.149 seconds
----------------------------------------------------------
Using INTEL Package without Coprocessor.
Compiler: Intel Classic C++ 20.21.5 / Intel(R) C++ g++ 9.3 mode
SIMD compiler directives: Enabled
Precision: mixed
----------------------------------------------------------
  generated 0 of 0 mixed pair_coeff terms from geometric mixing rule
Neighbor list info ...
  update every 1 steps, delay 1 steps, check yes
  max neighbors/atom: 2000, page size: 100000
  master list distance cutoff = 1.52
  ghost atom cutoff = 1.52
  binsize = 0.76, bins = 133 133 133
  1 neighbor lists, perpetual/occasional/extra = 1 0 0
  (1) pair lj/cut/intel, perpetual
      attributes: half, newton on, intel
      pair build: half/bin/newton/intel
      stencil: half/bin/3d
      bin: intel
Setting up Verlet run ...
  Unit style    : lj
  Current step  : 0
  Time step     : 0.012
WARNING: Communication cutoff 1.52 is shorter than a bond length based estimate of 1.855. This may lead to errors. (../comm.cpp:723)
Per MPI rank memory allocation (min/avg/max) = 3799 | 3801 | 3802 Mbytes
Step Temp E_pair E_mol TotEng Press 
       0   0.97026852   0.44484092    20.494523    22.394765    4.6721839 
     100   0.97137539   0.44317617    20.502786    22.403024    4.7062897 
     200   0.97772173   0.44324586    20.503815    22.413642     4.690938 
     300    0.9805472   0.44524406     20.50545    22.421513    4.7224121 
     400   0.98288724   0.44596385    20.507395    22.427688    4.7411653 
     500   0.98605963   0.44648967    20.507839    22.433416    4.7403129 
     600   0.98792916   0.44795215    20.509432    22.439277    4.7511915 
     700   0.98944628   0.44972048     20.51136    22.445248    4.7692954 
     800   0.99205386   0.45053325     20.51052    22.449132    4.7708762 
     900   0.99287117    0.4520197    20.511109    22.452434    4.7945169 
    1000   0.99547344   0.44920133      20.5128    22.455209    4.7682944 
    1100   0.99527879   0.45201871     20.51304    22.457976    4.7699047 
    1200   0.99728416   0.45096061    20.512604    22.459489    4.7756166 
    1300   0.99715812   0.45282325    20.512403    22.460961    4.7902302 
    1400   0.99802605   0.45193902    20.512723    22.461699    4.7694882 
    1500   0.99819531   0.45181857    20.513569    22.462679    4.7902369 
    1600   0.99909359   0.45126698    20.514227    22.464133     4.770396 
    1700   0.99841887   0.45305602    20.513173    22.463855    4.7907379 
    1800   0.99864113   0.45261538     20.51479    22.465365    4.7814803 
    1900    0.9995791   0.45214929    20.514363    22.465879    4.7773491 
    2000   0.99824944    0.4526806    20.515894    22.465947    4.7800943 
    2100   0.99893567   0.45284729    20.514034    22.465283    4.7641167 
    2200   0.99992474   0.45198178    20.514306    22.466173    4.7841555 
    2300   0.99877386    0.4531794    20.515185    22.466524     4.791203 
    2400   0.99907419   0.45248842    20.515361    22.466459    4.7742574 
    2500   0.99932908   0.45339528    20.516162    22.468549    4.7909632 
    2600   0.99935929   0.45354184    20.516249    22.468828    4.7986494 
    2700    1.0001702   0.45356905    20.515626    22.469449    4.7877822 
    2800   0.99910406   0.45321368    20.515409    22.467277    4.7736182 
    2900    0.9996602   0.45340655    20.514768    22.467663    4.7638816 
    3000   0.99935947   0.45284767    20.516468    22.468353    4.7916436 
    3100   0.99965539   0.45280583    20.514825    22.467112    4.7990912 
    3200    1.0000146   0.45292702    20.514248    22.467195    4.7875481 
    3300    1.0005121   0.45232636    20.513711    22.466804    4.7884059 
    3400   0.99900595   0.45423061    20.515479    22.468217    4.7911151 
    3500    0.9996071   0.45403222    20.514915    22.468356    4.8135579 
    3600   0.99939067   0.45396359    20.515005    22.468052    4.7791135 
    3700    1.0001872   0.45345029    20.515625    22.469354    4.7944124 
    3800   0.99885093   0.45415961     20.51637    22.468805    4.8050674 
    3900    1.0001584   0.45343243    20.515453    22.469121    4.7956202 
    4000    1.0016196   0.45255885    20.515268    22.470254    4.7851622 
    4100    1.0010149   0.45372242    20.515939    22.471182    4.7955414 
    4200     1.000684   0.45406648      20.5158    22.470891    4.8004347 
    4300    1.0008687   0.45387544    20.516303     22.47148    4.8147869 
    4400    1.0000695   0.45307933    20.516865    22.470047     4.778192 
    4500    1.0006104   0.45332956    20.514987    22.469231    4.7891861 
    4600    1.0003316   0.45233623    20.516967    22.469798    4.8046929 
    4700    1.0004532   0.45332616    20.514513    22.468517    4.7925433 
    4800    1.0013139   0.45297039    20.515356    22.470296    4.7925612 
    4900    1.0012669   0.45343385     20.51533    22.470662    4.8007837 
    5000    1.0009777    0.4539425    20.515323     22.47073    4.7757492 
    5100    1.0009337   0.45333909    20.514951    22.469689     4.792554 
    5200    1.0011591   0.45310281    20.514189    22.469029     4.771877 
    5300    1.0019737   0.45314317    20.514328     22.47043    4.7995637 
    5400    1.0004621   0.45348122    20.515844    22.470016    4.7843361 
    5500     1.000792   0.45249254    20.516958    22.470637     4.795131 
    5600    1.0018544   0.45275136    20.516829     22.47236    4.7946486 
    5700    1.0011762   0.45380113    20.516851    22.472414    4.7870426 
    5800    1.0011415   0.45474149    20.516218     22.47267    4.8010527 
    5900    1.0012533   0.45349748    20.515609    22.470985    4.7939209 
    6000    1.0012021   0.45347098    20.516268    22.471541    4.7924507 
    6100    1.0004672   0.45450991    20.516835    22.472044    4.8027179 
    6200    1.0007898   0.45300963    20.516337    22.470529    4.7897349 
    6300    1.0001381   0.45366306      20.5165    22.470369    4.7974355 
    6400    1.0004726   0.45365116    20.516153    22.470512    4.7820162 
    6500    1.0001392   0.45425218    20.516786    22.471246    4.7973076 
    6600    1.0007437   0.45355857    20.515717     22.47039    4.8109067 
    6700    0.9996478   0.45398842    20.516652    22.470111    4.7845262 
    6800    1.0013124   0.45338015    20.515102    22.470449    4.7987529 
    6900    1.0001285    0.4548332    20.515027    22.470051    4.8010616 
    7000    1.0004814   0.45422948    20.516079    22.471028    4.8070024 
    7100     1.000705   0.45388143     20.51659    22.471527    4.8072095 
    7200    1.0010179   0.45466089    20.516169    22.472355    4.7998418 
    7300    1.0013067   0.45467062    20.516092    22.472721     4.795751 
    7400    1.0025707    0.4549574    20.516165    22.474977    4.7999603 
    7500     1.002525   0.45421405    20.516119    22.474119    4.8013846 
    7600    1.0010056   0.45486466    20.517986    22.474358    4.7964921 
    7700    1.0018181   0.45385225    20.516832     22.47341    4.7940743 
    7800    1.0013733   0.45408321    20.516379    22.472521    4.7901088 
    7900    1.0008724   0.45307174    20.517055    22.471433     4.788115 
    8000    1.0015289   0.45333036    20.515235    22.470857    4.7807985 
    8100    1.0021441       0.4533     20.51513    22.471644    4.7787567 
    8200    1.0017557   0.45422622    20.514512     22.47137    4.7887276 
    8300    1.0016375   0.45477854    20.515256    22.472489    4.7913695 
    8400    1.0015755   0.45437996     20.51471    22.471451     4.796325 
    8500    1.0023825   0.45340671    20.514927    22.471906    4.7900616 
    8600    1.0011335   0.45464519    20.515608    22.471952    4.7935358 
    8700    1.0014361   0.45412332    20.516413    22.472688      4.80309 
    8800    1.0019163   0.45369239    20.515381    22.471946    4.7922812 
    8900    1.0014301    0.4545331    20.515711    22.472388    4.8029743 
    9000    1.0021713   0.45404492    20.515868    22.473168    4.7838313 
    9100    1.0019575   0.45366009    20.515866    22.472461    4.7897479 
    9200    1.0009683   0.45384191    20.515638     22.47093    4.8013671 
    9300    1.0005096    0.4534438     20.51618    22.470386    4.7877303 
    9400    1.0002704   0.45493786    20.515698     22.47104    4.7875785 
    9500    1.0017118   0.45403666    20.515511    22.472113    4.7822179 
    9600    1.0009362   0.45421618    20.514343    22.469962    4.8050841 
    9700    1.0005109   0.45438059    20.514257    22.469402    4.7822198 
    9800   0.99968011   0.45223911     20.51704    22.468797    4.7838999 
    9900    1.0006833   0.45255033    20.515846    22.469419    4.7626321 
   10000    1.0006021   0.45318651    20.514709    22.468797    4.7887805 
Loop time of 1109.16 on 2 procs for 10000 steps with 864000 atoms

Performance: 9347.643 tau/day, 9.016 timesteps/s
99.6% CPU use with 2 MPI tasks x 1 OpenMP threads

MPI task timing breakdown:
Section |  min time  |  avg time  |  max time  |%varavg| %total
---------------------------------------------------------------
Pair    | 289.93     | 293.82     | 297.72     |  22.7 | 26.49
Bond    | 51.214     | 51.504     | 51.795     |   4.0 |  4.64
Neigh   | 273.73     | 273.97     | 274.22     |   1.5 | 24.70
Comm    | 231.25     | 234.56     | 237.87     |  21.6 | 21.15
Output  | 0.1033     | 0.10547    | 0.10765    |   0.7 |  0.01
Modify  | 224.04     | 224.29     | 224.54     |   1.6 | 20.22
Other   |            | 30.9       |            |       |  2.79

Nlocal:         432000 ave      432148 max      431852 min
Histogram: 1 0 0 0 0 0 0 0 0 1
Nghost:        54107.5 ave       54108 max       54107 min
Histogram: 1 0 0 0 0 0 0 0 0 1
Neighs:    2.52965e+06 ave 2.53051e+06 max 2.52879e+06 min
Histogram: 1 0 0 0 0 0 0 0 0 1

Total # of neighbors = 5059306
Ave neighs/atom = 5.8556782
Ave special neighs/atom = 1.98
Neighbor list builds = 2741
Dangerous builds = 0
Total wall time: 0:18:29
Intel(R) VTune(TM) Profiler 2022.2.0 collection completed successfully. Use the "aps --report /home/ubuntu/lammps/bench/aps_result_20220703" command to generate textual and HTML reports for the profiling session.
