LAMMPS (7 Jan 2022)
  using 1 OpenMP thread(s) per MPI task
New timer settings: style=full  mode=nosync  timeout=off
Lattice spacing in x,y,z = 3.615 3.615 3.615
Created orthogonal box = (0 0 0) to (72.3 72.3 72.3)
  2 by 4 by 4 MPI processor grid
Created 32000 atoms
  using lattice units in orthogonal box = (0 0 0) to (72.3 72.3 72.3)
  create_atoms CPU = 0.002 seconds
Reading eam potential file Cu_u3.eam with DATE: 2007-06-11
----------------------------------------------------------
Using INTEL Package without Coprocessor.
Compiler: Intel Classic C++ 20.21.5 / Intel(R) C++ g++ 9.3 mode
SIMD compiler directives: Enabled
Precision: mixed
----------------------------------------------------------
Neighbor list info ...
  update every 1 steps, delay 5 steps, check yes
  max neighbors/atom: 2000, page size: 100000
  master list distance cutoff = 5.95
  ghost atom cutoff = 5.95
  binsize = 2.975, bins = 25 25 25
  1 neighbor lists, perpetual/occasional/extra = 1 0 0
  (1) pair eam/intel, perpetual
      attributes: half, newton on, intel
      pair build: half/bin/newton/intel
      stencil: half/bin/3d
      bin: intel
Setting up Verlet run ...
  Unit style    : metal
  Current step  : 0
  Time step     : 0.005
Per MPI rank memory allocation (min/avg/max) = 10.47 | 12.07 | 13.83 Mbytes
Step Temp E_pair E_mol TotEng Press 
       0         1600   -113279.97            0   -106662.06    18703.495 
      50    781.69067   -109873.35            0   -106640.12    52273.084 
     100    801.83215    -109957.3            0   -106640.76    51322.817 
Loop time of 0.0855375 on 32 procs for 100 steps with 32000 atoms

Performance: 505.042 ns/day, 0.048 hours/ns, 1169.078 timesteps/s
93.0% CPU use with 32 MPI tasks x 1 OpenMP threads

MPI task timing breakdown:
Section |  min time  |  avg time  |  max time  |%varavg|  %CPU | %total
-----------------------------------------------------------------------
Pair    | 0.057056   | 0.058529   | 0.061556   |   0.4 |  93.6 | 68.42
Neigh   | 0.0045134  | 0.0047973  | 0.0053455  |   0.3 |  95.9 |  5.61
Comm    | 0.015721   | 0.018723   | 0.020703   |   0.9 |  90.7 | 21.89
Output  | 9.5699e-05 | 0.00010407 | 0.00012492 |   0.0 |  99.7 |  0.12
Modify  | 0.0010382  | 0.0010719  | 0.0012185  |   0.1 |  93.3 |  1.25
Other   |            | 0.002312   |            |       |       |  2.70

Nlocal:           1000 ave        1026 max         967 min
Histogram: 1 1 1 3 6 6 5 6 0 3
Nghost:        2900.69 ave        2934 max        2875 min
Histogram: 3 0 6 5 7 5 3 2 0 1
Neighs:        37743.2 ave       38676 max       36443 min
Histogram: 1 0 3 1 8 4 4 4 4 3

Total # of neighbors = 1207782
Ave neighs/atom = 37.743187
Neighbor list builds = 13
Dangerous builds = 0
Total wall time: 0:00:00
Intel(R) VTune(TM) Profiler 2022.2.0 collection completed successfully. Use the "aps --report /home/ubuntu/lammps/bench/aps_result_20220519" command to generate textual and HTML reports for the profiling session.
