LAMMPS (7 Jan 2022)
  using 1 OpenMP thread(s) per MPI task
Lattice spacing in x,y,z = 3.615 3.615 3.615
Created orthogonal box = (0 0 0) to (72.3 72.3 72.3)
  4 by 4 by 4 MPI processor grid
Created 32000 atoms
  using lattice units in orthogonal box = (0 0 0) to (72.3 72.3 72.3)
  create_atoms CPU = 0.001 seconds
Reading eam potential file Cu_u3.eam with DATE: 2007-06-11
----------------------------------------------------------
Using INTEL Package without Coprocessor.
Compiler: Intel Classic C++ 20.21.5 / Intel(R) C++ g++ 9.3 mode
SIMD compiler directives: Enabled
Precision: mixed
----------------------------------------------------------
Neighbor list info ...
  update every 1 steps, delay 5 steps, check yes
  max neighbors/atom: 2000, page size: 100000
  master list distance cutoff = 5.95
  ghost atom cutoff = 5.95
  binsize = 2.975, bins = 25 25 25
  1 neighbor lists, perpetual/occasional/extra = 1 0 0
  (1) pair eam/intel, perpetual
      attributes: half, newton on, intel
      pair build: half/bin/newton/intel
      stencil: half/bin/3d
      bin: intel
Setting up Verlet run ...
  Unit style    : metal
  Current step  : 0
  Time step     : 0.005
Per MPI rank memory allocation (min/avg/max) = 6.582 | 7.727 | 9.115 Mbytes
Step Temp E_pair E_mol TotEng Press 
       0         1600   -113279.97            0   -106662.06    18703.495 
      50    781.69066   -109873.35            0   -106640.13    52273.084 
     100    801.83228    -109957.3            0   -106640.76    51322.819 
     150    794.67685   -109927.53            0   -106640.59    51669.314 
     200    795.75166   -109932.04            0   -106640.66    51628.965 
     250    797.58377   -109939.57            0    -106640.6     51564.23 
     300    793.23414    -109921.5            0   -106640.53    51741.301 
     350    799.19392    -109946.3            0   -106640.68    51461.961 
     400    797.16446   -109937.82            0    -106640.6    51585.761 
     450    794.86215   -109928.11            0    -106640.4    51651.488 
     500    796.78006   -109936.18            0   -106640.54    51565.467 
     550    796.68592   -109935.86            0   -106640.62    51580.795 
     600    799.54928   -109947.77            0   -106640.68    51434.219 
     650    800.85404   -109953.15            0   -106640.66    51407.357 
     700    791.74322   -109915.13            0   -106640.33    51729.799 
     750    801.42719   -109955.58            0   -106640.72    51341.063 
     800    797.91891   -109940.76            0   -106640.41    51527.602 
     850    803.70775   -109964.93            0   -106640.64    51321.636 
     900    805.40108      -109972            0   -106640.71    51275.598 
     950    799.22937   -109946.21            0   -106640.44    51489.883 
    1000    796.31246   -109933.89            0   -106640.19    51607.909 
    1050    793.62479   -109922.84            0   -106640.25    51684.591 
    1100    800.67068   -109951.99            0   -106640.26    51461.884 
    1150    795.83554   -109932.04            0    -106640.3    51541.446 
    1200    798.41282   -109942.84            0   -106640.45    51467.992 
    1250    800.53941   -109951.51            0   -106640.33    51439.918 
    1300    796.90968   -109936.42            0   -106640.24    51579.349 
    1350    798.05498   -109941.37            0   -106640.46    51528.671 
    1400    801.20242    -109954.4            0   -106640.47    51423.612 
    1450    796.99327   -109936.68            0   -106640.16    51554.488 
    1500    795.83639   -109931.94            0   -106640.21     51624.89 
    1550    799.66058    -109947.9            0   -106640.35    51457.548 
    1600     794.4516   -109926.23            0   -106640.22    51697.986 
    1650    799.30582   -109946.48            0   -106640.39    51433.221 
    1700    798.94605   -109944.85            0   -106640.26     51490.89 
    1750    798.29824   -109942.16            0   -106640.24     51520.04 
    1800    798.51826   -109943.14            0   -106640.31    51495.282 
    1850     795.8555   -109932.06            0   -106640.25    51571.303 
    1900    797.68545   -109939.66            0   -106640.27    51526.926 
    1950    804.63875   -109968.61            0   -106640.46    51245.519 
    2000    794.88106    -109928.1            0   -106640.32    51679.364 
    2050    795.20002    -109929.3            0    -106640.2    51648.534 
    2100    797.90063   -109940.65            0   -106640.38    51525.199 
    2150    802.90474   -109961.46            0   -106640.49    51333.148 
    2200    799.99713   -109949.37            0   -106640.42    51458.708 
    2250    799.82702    -109948.6            0   -106640.36    51462.295 
    2300    799.52955   -109947.44            0   -106640.43    51445.351 
    2350    801.72517   -109956.56            0   -106640.47     51391.55 
    2400    798.82788   -109944.44            0   -106640.33    51564.742 
    2450    798.79612    -109944.6            0   -106640.62    51462.131 
    2500     798.7355   -109944.25            0   -106640.52     51480.15 
    2550    796.46105   -109934.78            0   -106640.46    51596.675 
    2600    798.70487   -109943.97            0   -106640.37    51503.317 
    2650     793.9448   -109924.13            0   -106640.22    51664.483 
    2700    797.65428   -109939.62            0   -106640.37     51550.66 
    2750    797.34223   -109938.37            0    -106640.4    51553.863 
    2800    799.08679   -109945.62            0   -106640.44    51476.545 
    2850    799.41021   -109946.88            0   -106640.37    51431.949 
    2900     798.4525    -109942.9            0   -106640.34     51457.71 
    2950    796.54395   -109934.95            0   -106640.29    51588.512 
    3000    796.32368   -109934.06            0   -106640.31    51592.887 
    3050    794.08949   -109924.77            0   -106640.26    51709.237 
    3100    793.96861    -109924.2            0   -106640.19    51723.998 
    3150    798.20639   -109941.77            0   -106640.23    51595.083 
    3200    796.93644   -109936.54            0   -106640.25     51512.25 
    3250    794.87669   -109927.95            0   -106640.19     51689.79 
    3300    801.20133   -109954.45            0   -106640.52     51392.82 
    3350    798.65414    -109943.9            0   -106640.52    51542.154 
    3400    798.78752   -109944.22            0   -106640.28    51468.233 
    3450    797.80257   -109940.05            0   -106640.18    51569.261 
    3500    799.08807   -109945.48            0   -106640.29    51479.948 
    3550    795.03228   -109928.63            0   -106640.22    51641.181 
    3600    798.63717   -109943.59            0   -106640.27    51533.355 
    3650    795.19082   -109929.32            0   -106640.25    51731.362 
    3700    796.32407   -109934.12            0   -106640.37    51588.222 
    3750    794.06725   -109924.69            0   -106640.27    51720.062 
    3800     798.6337   -109943.55            0   -106640.25    51600.392 
    3850    791.03255      -109912            0   -106640.13    51840.846 
    3900    795.21179   -109929.43            0   -106640.27    51672.098 
    3950    795.93578   -109932.29            0   -106640.15    51647.574 
    4000     794.8553   -109927.89            0   -106640.22    51684.906 
    4050    795.74619   -109931.51            0   -106640.14     51642.83 
    4100    798.12219   -109941.44            0   -106640.25    51511.525 
    4150     795.0915   -109928.73            0   -106640.07    51662.547 
    4200    795.22726    -109929.3            0   -106640.09    51602.064 
    4250    794.65877   -109926.82            0   -106639.96    51683.011 
    4300    793.52157   -109922.13            0   -106639.97     51713.69 
    4350    796.65152   -109935.22            0   -106640.11    51562.107 
    4400    798.34582    -109942.2            0   -106640.09     51541.23 
    4450    796.31636   -109933.87            0   -106640.15    51604.252 
    4500    802.41138   -109959.25            0   -106640.32     51350.32 
    4550    798.34902   -109942.12            0      -106640    51499.867 
    4600    795.70028   -109931.26            0   -106640.09    51633.357 
    4650    803.57979   -109964.01            0   -106640.25    51283.188 
    4700    796.18783   -109933.27            0   -106640.08     51636.07 
    4750    798.54609   -109943.06            0   -106640.12    51505.017 
    4800    797.75804   -109939.73            0   -106640.05    51556.022 
    4850    801.18728   -109954.19            0   -106640.33    51438.402 
    4900    797.86305    -109940.3            0   -106640.18     51540.14 
    4950    796.76626   -109935.81            0   -106640.23    51613.781 
    5000    798.88794   -109944.61            0   -106640.26    51453.481 
    5050    798.88465   -109944.64            0    -106640.3    51546.294 
    5100    795.63059   -109930.98            0    -106640.1    51603.576 
    5150    798.82913   -109944.35            0   -106640.24    51497.897 
    5200    794.12963   -109924.73            0   -106640.06    51662.761 
    5250    801.41808   -109955.06            0   -106640.24    51397.909 
    5300     792.5123   -109917.95            0   -106639.96     51731.92 
    5350     798.2091   -109941.62            0   -106640.07    51509.184 
    5400    793.50663   -109922.06            0   -106639.96    51740.709 
    5450    795.42406   -109930.01            0   -106639.98    51668.143 
    5500    795.91101   -109932.19            0   -106640.14     51594.86 
    5550    799.87182   -109948.71            0   -106640.29    51422.556 
    5600    794.54911   -109926.39            0   -106639.98    51664.222 
    5650    800.54181   -109951.32            0   -106640.12    51468.588 
    5700    797.96744    -109940.7            0   -106640.15    51520.338 
    5750    798.33109   -109942.19            0   -106640.13    51521.736 
    5800    799.76545   -109948.11            0   -106640.12    51451.537 
    5850    800.45274   -109951.02            0   -106640.19    51406.216 
    5900    794.95678   -109928.12            0   -106640.02    51704.588 
    5950    795.95776   -109932.31            0   -106640.08    51594.791 
    6000    791.67104   -109914.16            0   -106639.65    51790.351 
    6050    791.62907   -109914.13            0    -106639.8    51766.141 
    6100     793.0811   -109920.18            0   -106639.84     51757.24 
    6150    800.37562   -109950.59            0   -106640.08    51432.736 
    6200    799.95173    -109948.8            0   -106640.04    51473.068 
    6250    796.11163    -109932.7            0   -106639.83    51658.301 
    6300    798.42756   -109942.33            0   -106639.88    51519.662 
    6350    799.63443   -109947.59            0   -106640.15    51450.005 
    6400    797.10827    -109936.8            0    -106639.8    51575.789 
    6450    794.15964    -109924.6            0   -106639.81    51707.733 
    6500    800.45847   -109950.91            0   -106640.05    51406.044 
    6550    795.36915   -109929.65            0   -106639.85    51656.163 
    6600    798.13495   -109941.18            0   -106639.94     51530.46 
    6650    800.36293   -109950.43            0   -106639.97    51453.191 
    6700    799.63964   -109947.53            0   -106640.06    51510.067 
    6750    794.85933   -109927.66            0   -106639.96    51656.906 
    6800    798.35016   -109942.06            0   -106639.93     51542.33 
    6850    798.13791   -109941.28            0   -106640.02    51552.789 
    6900    790.95671   -109911.35            0    -106639.8    51807.226 
    6950    792.15119   -109916.19            0   -106639.69    51799.324 
    7000    799.55173   -109947.15            0   -106640.05    51460.297 
    7050    797.49822   -109938.43            0   -106639.82    51564.215 
    7100    800.80314   -109952.13            0   -106639.85    51435.259 
    7150    796.98001    -109936.4            0   -106639.93    51568.607 
    7200    799.51288    -109946.7            0   -106639.76    51471.467 
    7250     801.0523   -109953.28            0   -106639.97    51375.544 
    7300    798.85985    -109944.1            0   -106639.86    51544.434 
    7350    797.31645   -109937.78            0   -106639.92    51596.424 
    7400    795.41338   -109929.81            0   -106639.83    51671.449 
    7450    797.15425   -109937.06            0   -106639.87    51566.214 
    7500    796.97252   -109936.38            0   -106639.95    51615.108 
    7550    794.35729   -109925.49            0   -106639.88     51715.57 
    7600    801.03327    -109953.3            0   -106640.07    51467.179 
    7650    797.33406    -109937.9            0   -106639.97    51570.187 
    7700    796.84109   -109935.85            0   -106639.96    51647.699 
    7750     800.1932   -109949.87            0   -106640.12    51468.205 
    7800    798.89537   -109944.36            0   -106639.97    51540.487 
    7850    797.74616   -109939.54            0   -106639.91    51565.233 
    7900    799.45777   -109946.63            0   -106639.92    51459.915 
    7950    798.18236   -109941.35            0   -106639.92    51544.283 
    8000    800.52112    -109951.2            0   -106640.09    51453.527 
    8050    797.64916    -109939.1            0   -106639.86    51554.584 
    8100     795.7774    -109931.4            0    -106639.9    51654.759 
    8150    798.94556   -109944.72            0   -106640.12    51493.217 
    8200    797.75442   -109939.67            0      -106640    51519.008 
    8250    796.10169   -109932.82            0   -106639.99    51620.576 
    8300    797.31628   -109937.92            0   -106640.06    51574.714 
    8350    795.86109   -109931.85            0   -106640.01     51606.34 
    8400     796.9963   -109936.46            0   -106639.92    51583.763 
    8450      797.778   -109939.87            0    -106640.1     51520.08 
    8500    800.08996   -109949.32            0   -106639.99     51495.45 
    8550    799.83693    -109948.4            0   -106640.12    51469.947 
    8600     796.8603   -109935.82            0   -106639.85    51599.084 
    8650    801.02674   -109953.34            0   -106640.14    51406.966 
    8700    796.23899   -109933.39            0   -106639.99    51590.655 
    8750    791.29812   -109912.81            0   -106639.85    51754.357 
    8800    802.85787   -109961.03            0   -106640.25    51303.537 
    8850    797.30777    -109937.8            0   -106639.98    51568.813 
    8900    794.84808   -109927.54            0   -106639.89    51705.745 
    8950    800.28127   -109950.19            0   -106640.07    51436.826 
    9000    796.41719      -109934            0   -106639.87     51606.96 
    9050    800.71959   -109952.04            0   -106640.11    51473.957 
    9100    793.53285   -109922.03            0   -106639.82    51718.759 
    9150    798.71738    -109943.8            0   -106640.15    51512.811 
    9200    800.62294   -109951.61            0   -106640.07    51453.911 
    9250    795.89217   -109931.92            0   -106639.96    51651.678 
    9300    795.59565   -109930.72            0   -106639.98    51592.528 
    9350    797.79973   -109939.82            0   -106639.97    51560.483 
    9400    799.25342   -109945.66            0   -106639.79    51512.709 
    9450    792.01151   -109915.74            0   -106639.82    51820.724 
    9500    795.68457   -109930.96            0   -106639.85    51639.377 
    9550     803.3355   -109962.84            0   -106640.09    51305.645 
    9600    800.28002   -109950.03            0   -106639.92    51494.198 
    9650    797.61241   -109939.01            0   -106639.93    51583.319 
    9700    799.10944   -109945.19            0   -106639.92    51476.532 
    9750    798.27685   -109941.81            0   -106639.98     51527.73 
    9800    797.23344   -109937.44            0   -106639.92    51560.062 
    9850    797.22245    -109937.3            0   -106639.83    51609.529 
    9900    797.82678   -109939.81            0   -106639.85    51544.824 
    9950    798.30503    -109941.7            0   -106639.76    51525.607 
   10000    796.40212    -109933.8            0   -106639.73    51640.278 
Loop time of 3.57988 on 64 procs for 10000 steps with 32000 atoms

Performance: 1206.743 ns/day, 0.020 hours/ns, 2793.387 timesteps/s
94.9% CPU use with 64 MPI tasks x 1 OpenMP threads

MPI task timing breakdown:
Section |  min time  |  avg time  |  max time  |%varavg| %total
---------------------------------------------------------------
Pair    | 2.3967     | 2.4461     | 2.525      |   2.6 | 68.33
Neigh   | 0.22961    | 0.24369    | 0.26379    |   2.2 |  6.81
Comm    | 0.65646    | 0.75212    | 0.82489    |   6.1 | 21.01
Output  | 0.0054425  | 0.0068978  | 0.0083092  |   0.8 |  0.19
Modify  | 0.046806   | 0.049651   | 0.0526     |   0.9 |  1.39
Other   |            | 0.08141    |            |       |  2.27

Nlocal:            500 ave         528 max         475 min
Histogram: 2 2 6 14 11 13 10 4 1 1
Nghost:        1955.78 ave        1981 max        1928 min
Histogram: 1 1 4 10 14 11 14 5 2 2
Neighs:          18876 ave       19898 max       17882 min
Histogram: 3 0 7 9 15 12 10 5 1 2

Total # of neighbors = 1208066
Ave neighs/atom = 37.752063
Neighbor list builds = 1420
Dangerous builds = 2
Total wall time: 0:00:03
Intel(R) VTune(TM) Profiler 2022.2.0 collection completed successfully. Use the "aps --report /home/ubuntu/lammps/bench/aps_result_20220703" command to generate textual and HTML reports for the profiling session.
