LAMMPS (7 Jan 2022)
  using 1 OpenMP thread(s) per MPI task
New timer settings: style=full  mode=nosync  timeout=off
Lattice spacing in x,y,z = 3.615 3.615 3.615
Created orthogonal box = (0 0 0) to (144.6 144.6 144.6)
  2 by 2 by 4 MPI processor grid
Created 256000 atoms
  using lattice units in orthogonal box = (0 0 0) to (144.6 144.6 144.6)
  create_atoms CPU = 0.006 seconds
Reading eam potential file Cu_u3.eam with DATE: 2007-06-11
----------------------------------------------------------
Using INTEL Package without Coprocessor.
Compiler: Intel Classic C++ 20.21.5 / Intel(R) C++ g++ 9.3 mode
SIMD compiler directives: Enabled
Precision: mixed
----------------------------------------------------------
Neighbor list info ...
  update every 1 steps, delay 5 steps, check yes
  max neighbors/atom: 2000, page size: 100000
  master list distance cutoff = 5.95
  ghost atom cutoff = 5.95
  binsize = 2.975, bins = 49 49 49
  1 neighbor lists, perpetual/occasional/extra = 1 0 0
  (1) pair eam/intel, perpetual
      attributes: half, newton on, intel
      pair build: half/bin/newton/intel
      stencil: half/bin/3d
      bin: intel
Setting up Verlet run ...
  Unit style    : metal
  Current step  : 0
  Time step     : 0.005
Per MPI rank memory allocation (min/avg/max) = 136.3 | 143.1 | 149.8 Mbytes
Step Temp E_pair E_mol TotEng Press 
       0         1600   -906239.72            0   -853294.98        18704 
      50     780.3702   -878942.74            0   -853119.93    52325.527 
     100    798.91513   -879560.78            0    -853124.3    51436.869 
Loop time of 0.91474 on 16 procs for 100 steps with 256000 atoms

Performance: 47.227 ns/day, 0.508 hours/ns, 109.321 timesteps/s
98.1% CPU use with 16 MPI tasks x 1 OpenMP threads

MPI task timing breakdown:
Section |  min time  |  avg time  |  max time  |%varavg|  %CPU | %total
-----------------------------------------------------------------------
Pair    | 0.71352    | 0.71965    | 0.7261     |   0.4 |  98.4 | 78.67
Neigh   | 0.073108   | 0.074019   | 0.075889   |   0.3 |  98.8 |  8.09
Comm    | 0.066642   | 0.07564    | 0.083508   |   1.5 |  95.6 |  8.27
Output  | 0.0002571  | 0.0003202  | 0.00044338 |   0.0 | 100.0 |  0.04
Modify  | 0.026418   | 0.028615   | 0.031773   |   0.9 |  98.1 |  3.13
Other   |            | 0.0165     |            |       |       |  1.80

Nlocal:          16000 ave       16109 max       15846 min
Histogram: 1 1 0 1 3 3 1 3 1 2
Nghost:        13820.3 ave       13975 max       13711 min
Histogram: 2 0 4 2 2 3 1 0 1 1
Neighs:         603638 ave      607954 max      597739 min
Histogram: 2 0 0 1 2 3 2 2 2 2

Total # of neighbors = 9658200
Ave neighs/atom = 37.727344
Neighbor list builds = 15
Dangerous builds = 0
Total wall time: 0:00:00
Intel(R) VTune(TM) Profiler 2022.2.0 collection completed successfully. Use the "aps --report /home/ubuntu/lammps/bench/aps_result_20220519" command to generate textual and HTML reports for the profiling session.
