LAMMPS (7 Jan 2022)
  using 1 OpenMP thread(s) per MPI task
New timer settings: style=full  mode=nosync  timeout=off
Lattice spacing in x,y,z = 3.615 3.615 3.615
Created orthogonal box = (0 0 0) to (289.2 289.2 289.2)
  2 by 2 by 2 MPI processor grid
Created 2048000 atoms
  using lattice units in orthogonal box = (0 0 0) to (289.2 289.2 289.2)
  create_atoms CPU = 0.043 seconds
Reading eam potential file Cu_u3.eam with DATE: 2007-06-11
----------------------------------------------------------
Using INTEL Package without Coprocessor.
Compiler: Intel Classic C++ 20.21.5 / Intel(R) C++ g++ 9.3 mode
SIMD compiler directives: Enabled
Precision: mixed
----------------------------------------------------------
Neighbor list info ...
  update every 1 steps, delay 5 steps, check yes
  max neighbors/atom: 2000, page size: 100000
  master list distance cutoff = 5.95
  ghost atom cutoff = 5.95
  binsize = 2.975, bins = 98 98 98
  1 neighbor lists, perpetual/occasional/extra = 1 0 0
  (1) pair eam/intel, perpetual
      attributes: half, newton on, intel
      pair build: half/bin/newton/intel
      stencil: half/bin/3d
      bin: intel
Setting up Verlet run ...
  Unit style    : metal
  Current step  : 0
  Time step     : 0.005
Per MPI rank memory allocation (min/avg/max) = 2233 | 2233 | 2233 Mbytes
Step Temp E_pair E_mol TotEng Press 
       0         1600   -7249918.3            0   -6826358.9    18704.056 
      50     780.8154   -7031660.7            0   -6824959.7    52291.357 
     100    798.21781   -7036295.1            0   -6824987.2    51479.463 
Loop time of 11.2599 on 8 procs for 100 steps with 2048000 atoms

Performance: 3.837 ns/day, 6.256 hours/ns, 8.881 timesteps/s
98.9% CPU use with 8 MPI tasks x 1 OpenMP threads

MPI task timing breakdown:
Section |  min time  |  avg time  |  max time  |%varavg|  %CPU | %total
-----------------------------------------------------------------------
Pair    | 9.1019     | 9.1502     | 9.2598     |   1.7 |  99.4 | 81.26
Neigh   | 0.85075    | 0.86083    | 0.8827     |   1.3 |  99.8 |  7.65
Comm    | 0.57902    | 0.7276     | 0.79246    |   8.1 |  92.5 |  6.46
Output  | 0.0017368  | 0.0018605  | 0.0019223  |   0.1 | 100.0 |  0.02
Modify  | 0.35757    | 0.37081    | 0.38952    |   1.7 |  96.7 |  3.29
Other   |            | 0.1486     |            |       |       |  1.32

Nlocal:         256000 ave      256345 max      255828 min
Histogram: 2 2 0 2 0 0 1 0 0 1
Nghost:        73245.1 ave       73416 max       72893 min
Histogram: 1 0 0 1 0 0 2 0 2 2
Neighs:    9.65782e+06 ave 9.66822e+06 max 9.64461e+06 min
Histogram: 2 0 0 0 0 2 1 0 1 2

Total # of neighbors = 77262600
Ave neighs/atom = 37.725879
Neighbor list builds = 15
Dangerous builds = 0
Total wall time: 0:00:11
Intel(R) VTune(TM) Profiler 2022.2.0 collection completed successfully. Use the "aps --report /home/ubuntu/lammps/bench/aps_result_20220519" command to generate textual and HTML reports for the profiling session.
