LAMMPS (7 Jan 2022)
  using 1 OpenMP thread(s) per MPI task
Lattice spacing in x,y,z = 3.615 3.615 3.615
Created orthogonal box = (0 0 0) to (289.2 289.2 289.2)
  2 by 2 by 4 MPI processor grid
Created 2048000 atoms
  using lattice units in orthogonal box = (0 0 0) to (289.2 289.2 289.2)
  create_atoms CPU = 0.027 seconds
Reading eam potential file Cu_u3.eam with DATE: 2007-06-11
----------------------------------------------------------
Using INTEL Package without Coprocessor.
Compiler: Intel Classic C++ 20.21.5 / Intel(R) C++ g++ 9.3 mode
SIMD compiler directives: Enabled
Precision: mixed
----------------------------------------------------------
Neighbor list info ...
  update every 1 steps, delay 5 steps, check yes
  max neighbors/atom: 2000, page size: 100000
  master list distance cutoff = 5.95
  ghost atom cutoff = 5.95
  binsize = 2.975, bins = 98 98 98
  1 neighbor lists, perpetual/occasional/extra = 1 0 0
  (1) pair eam/intel, perpetual
      attributes: half, newton on, intel
      pair build: half/bin/newton/intel
      stencil: half/bin/3d
      bin: intel
Setting up Verlet run ...
  Unit style    : metal
  Current step  : 0
  Time step     : 0.005
Per MPI rank memory allocation (min/avg/max) = 1093 | 1120 | 1147 Mbytes
Step Temp E_pair E_mol TotEng Press 
       0         1600   -7249918.3            0   -6826358.9    18704.056 
      50     780.8154   -7031660.7            0   -6824959.7    52291.357 
     100    798.21782   -7036295.1            0   -6824987.2    51479.461 
     150    797.44766   -7036092.2            0   -6824988.1    51537.972 
     200    797.94536   -7036225.3            0   -6824989.5    51521.859 
     250    797.47916   -7036101.1            0   -6824988.7    51545.015 
     300    798.50353   -7036374.1            0   -6824990.6    51508.829 
     350    797.57298   -7036125.2            0   -6824987.9    51546.565 
     400    797.67097   -7036151.8            0   -6824988.6    51542.651 
     450    798.03833   -7036249.6            0   -6824989.2    51530.833 
     500    797.62513   -7036139.8            0   -6824988.8    51552.148 
     550    797.88007   -7036206.7            0   -6824988.2    51537.729 
     600    798.01077     -7036242            0   -6824988.9    51526.827 
     650    797.37432   -7036071.8            0   -6824987.2    51553.941 
     700    797.65029   -7036144.6            0   -6824986.9    51546.343 
     750    797.41511   -7036081.7            0   -6824986.2    51554.362 
     800    796.99581   -7035970.1            0   -6824985.7    51570.449 
     850    797.57481   -7036123.8            0     -6824986    51550.644 
     900    797.44227     -7036088            0   -6824985.4    51556.906 
     950    797.95822   -7036225.3            0   -6824986.1    51532.902 
    1000    797.30787   -7036050.8            0   -6824983.8    51568.217 
    1050     797.5084     -7036105            0   -6824984.8    51548.157 
    1100    797.22161   -7036027.2            0   -6824982.9    51565.305 
    1150    798.02838   -7036243.2            0   -6824985.4    51533.641 
    1200    798.03719   -7036243.6            0   -6824983.5    51540.158 
    1250    797.48878   -7036097.2            0   -6824982.2    51558.161 
    1300    797.84515   -7036192.3            0     -6824983    51540.069 
    1350    797.80743   -7036182.4            0   -6824983.1    51542.487 
    1400    797.49878   -7036099.4            0   -6824981.8    51559.608 
    1450     797.5631   -7036116.3            0   -6824981.7    51546.403 
    1500    798.16969   -7036277.7            0   -6824982.5    51530.669 
    1550    797.40672   -7036073.6            0   -6824980.4    51566.074 
    1600    797.45197   -7036085.1            0   -6824979.9     51561.56 
    1650    797.63689   -7036134.5            0   -6824980.4    51548.924 
    1700    797.09014   -7035988.6            0   -6824979.2    51567.695 
    1750    797.54179     -7036108            0   -6824979.1    51561.364 
    1800    797.88136   -7036199.3            0   -6824980.5    51537.426 
    1850    798.39564   -7036335.1            0   -6824980.1    51515.964 
    1900    797.76411   -7036166.3            0   -6824978.5     51550.09 
    1950    797.63389   -7036131.6            0   -6824978.3    51552.045 
    2000    797.75398   -7036163.4            0   -6824978.3    51544.655 
    2050    798.19115   -7036279.4            0   -6824978.5    51527.532 
    2100    797.87792     -7036195            0     -6824977    51539.268 
    2150    797.82444   -7036180.6            0   -6824976.8    51542.549 
    2200     798.0529   -7036239.7            0   -6824975.4    51535.526 
    2250    797.76791   -7036164.6            0   -6824975.8     51548.73 
    2300    797.96268   -7036216.8            0   -6824976.4    51540.476 
    2350    797.96823   -7036217.5            0   -6824975.7     51536.89 
    2400    797.55442   -7036106.4            0   -6824974.1    51556.916 
    2450    797.92316   -7036204.1            0   -6824974.2    51544.518 
    2500    797.73474   -7036153.1            0     -6824973    51549.612 
    2550    797.65173     -7036130            0     -6824972     51552.68 
    2600    797.97201   -7036216.4            0   -6824973.6    51532.331 
    2650    797.34666   -7036048.6            0   -6824971.3    51559.322 
    2700    797.74828     -7036155            0   -6824971.3    51545.066 
    2750    797.65821   -7036131.2            0   -6824971.4     51549.99 
    2800    797.44499   -7036073.9            0   -6824970.5     51555.37 
    2850    797.70593   -7036142.8            0   -6824970.4    51551.647 
    2900    797.29787   -7036033.7            0   -6824969.3    51567.716 
    2950    798.27349   -7036293.7            0     -6824971     51532.97 
    3000    797.81159   -7036169.2            0   -6824968.8     51545.52 
    3050    797.39169   -7036057.9            0   -6824968.7    51563.265 
    3100    797.40478   -7036059.9            0   -6824967.2    51560.809 
    3150    797.84449     -7036178            0   -6824968.9    51543.746 
    3200    797.53024   -7036093.1            0   -6824967.1    51557.193 
    3250    797.57366   -7036105.1            0   -6824967.7    51554.389 
    3300    797.74453   -7036149.5            0   -6824966.8    51553.738 
    3350      797.233   -7036014.3            0   -6824967.1    51568.851 
    3400    797.89806   -7036190.8            0   -6824967.5    51537.477 
    3450    797.86535   -7036181.7            0     -6824967    51542.725 
    3500    798.43808   -7036333.8            0   -6824967.5    51517.732 
    3550    798.20362   -7036270.9            0   -6824966.7    51536.799 
    3600    798.47375   -7036342.8            0   -6824967.1     51524.34 
    3650    797.00268   -7035949.8            0   -6824963.6    51579.656 
    3700    798.35774   -7036310.5            0   -6824965.5    51520.163 
    3750    798.12927   -7036249.1            0   -6824964.7    51528.406 
    3800    797.98209   -7036208.9            0   -6824963.4    51541.209 
    3850    798.07228   -7036232.9            0   -6824963.5    51538.449 
    3900    797.90527   -7036187.6            0   -6824962.5    51545.817 
    3950     797.4071   -7036055.2            0   -6824961.8    51566.954 
    4000    797.86268   -7036176.5            0   -6824962.6    51543.237 
    4050    797.78732   -7036155.7            0   -6824961.7    51553.712 
    4100    797.14632   -7035983.8            0   -6824959.5    51576.086 
    4150    797.88036   -7036179.3            0   -6824960.7    51544.977 
    4200    797.91754   -7036189.6            0   -6824961.2    51545.893 
    4250    797.32099   -7036029.3            0   -6824958.8    51571.189 
    4300    798.16508   -7036255.1            0   -6824961.1    51535.097 
    4350    797.83104   -7036165.4            0   -6824959.8    51550.851 
    4400    797.36053   -7036038.8            0   -6824957.8     51565.41 
    4450     798.3612     -7036306            0   -6824960.1     51523.88 
    4500    797.71645   -7036133.8            0   -6824958.6    51546.039 
    4550    797.37727     -7036043            0   -6824957.5    51562.319 
    4600    797.70456   -7036128.4            0   -6824956.3    51546.429 
    4650    797.68989   -7036124.7            0   -6824956.5    51549.935 
    4700    797.88588   -7036175.5            0   -6824955.5    51543.526 
    4750    797.87227   -7036172.6            0   -6824956.2    51547.996 
    4800    797.71238   -7036129.8            0   -6824955.7    51553.852 
    4850    797.82463   -7036158.8            0     -6824955    51549.812 
    4900    797.70298   -7036125.7            0   -6824954.1    51551.455 
    4950    798.55188   -7036352.6            0   -6824956.3    51529.761 
    5000    798.08503   -7036227.5            0   -6824954.7     51537.23 
    5050     798.1514   -7036245.1            0   -6824954.7    51528.474 
    5100    798.07073   -7036223.6            0   -6824954.6    51533.258 
    5150    798.18134   -7036252.4            0   -6824954.1    51535.706 
    5200    798.34146   -7036295.2            0   -6824954.5    51523.208 
    5250     797.4363   -7036053.3            0   -6824952.3    51562.246 
    5300    797.22092   -7035994.4            0   -6824950.3    51573.019 
    5350    797.97038   -7036194.3            0   -6824951.9    51537.623 
    5400     798.1538   -7036242.6            0   -6824951.6    51540.921 
    5450    798.08965     -7036226            0     -6824952    51538.364 
    5500    797.64545   -7036107.9            0   -6824951.5    51555.167 
    5550    797.38915   -7036037.7            0   -6824949.2    51572.286 
    5600    798.35809   -7036295.7            0   -6824950.6    51526.551 
    5650    797.49701   -7036065.8            0   -6824948.7     51556.21 
    5700    798.36536   -7036297.3            0   -6824950.3    51528.585 
    5750    797.45036   -7036053.4            0   -6824948.7    51562.587 
    5800    797.81269   -7036149.1            0   -6824948.4    51551.918 
    5850    798.28265   -7036275.4            0   -6824950.3    51526.982 
    5900    798.25427   -7036266.4            0   -6824948.9    51533.796 
    5950    797.95559   -7036185.3            0   -6824946.8      51549.7 
    6000    797.49979   -7036063.6            0   -6824945.8    51560.906 
    6050    798.00981   -7036199.3            0   -6824946.5    51541.654 
    6100     798.1064   -7036223.7            0   -6824945.2    51538.667 
    6150    796.85216   -7035890.6            0   -6824944.2    51584.584 
    6200      797.758     -7036130            0   -6824943.8    51550.285 
    6250     797.8604   -7036156.9            0   -6824943.6     51549.98 
    6300    798.28685   -7036271.2            0     -6824945    51528.003 
    6350    797.28942   -7036004.8            0   -6824942.6    51575.121 
    6400    798.47428   -7036320.4            0   -6824944.6    51521.145 
    6450    797.72209   -7036119.9            0   -6824943.2     51553.79 
    6500    798.12097   -7036224.7            0   -6824942.4    51538.905 
    6550    797.78652   -7036136.6            0   -6824942.9    51547.348 
    6600    797.87565   -7036160.3            0   -6824942.9    51553.763 
    6650     797.8823     -7036162            0   -6824942.9    51543.768 
    6700    797.83767   -7036149.3            0     -6824942    51545.688 
    6750    798.01234   -7036194.8            0   -6824941.3    51539.969 
    6800    797.97553   -7036185.2            0   -6824941.4    51541.744 
    6850     798.4799     -7036319            0   -6824941.7    51519.699 
    6900     798.0909   -7036215.8            0   -6824941.5    51533.864 
    6950    797.47234   -7036049.8            0   -6824939.2     51566.15 
    7000    798.67875   -7036370.5            0   -6824940.5    51516.044 
    7050    798.48377   -7036317.6            0   -6824939.3    51524.551 
    7100    797.82159   -7036141.5            0   -6824938.4    51549.713 
    7150    798.04192   -7036200.7            0   -6824939.4    51538.967 
    7200    798.01859   -7036194.7            0   -6824939.5    51546.732 
    7250    797.59285   -7036080.9            0   -6824938.4     51563.13 
    7300    797.84752   -7036148.1            0   -6824938.2    51549.875 
    7350    798.12428   -7036220.2            0   -6824937.1    51543.647 
    7400    797.91627   -7036165.9            0   -6824937.8    51546.237 
    7450    797.95813   -7036177.1            0   -6824937.9    51546.469 
    7500    797.27282   -7035993.5            0   -6824935.7    51575.216 
    7550    798.61842   -7036351.6            0   -6824937.7    51512.826 
    7600    797.34079   -7036010.6            0   -6824934.9    51572.055 
    7650    798.15922   -7036228.6            0   -6824936.2    51533.271 
    7700     798.1312   -7036219.7            0   -6824934.7    51543.633 
    7750    797.99956     -7036186            0   -6824935.9    51542.893 
    7800     798.1086   -7036213.3            0   -6824934.3    51544.428 
    7850    797.49976   -7036050.1            0   -6824932.3    51562.985 
    7900    797.74101   -7036114.1            0   -6824932.3    51553.152 
    7950    797.93476   -7036166.6            0   -6824933.6    51543.908 
    8000    797.56089   -7036065.4            0   -6824931.3    51564.907 
    8050    797.77355   -7036123.8            0   -6824933.5    51557.997 
    8100    797.67157   -7036094.8            0   -6824931.5     51563.08 
    8150    797.93766   -7036165.7            0   -6824931.9    51550.441 
    8200    798.18691   -7036230.9            0   -6824931.2    51537.127 
    8250    798.25075     -7036248            0   -6824931.3    51534.443 
    8300    797.86737   -7036145.3            0   -6824930.2     51549.83 
    8350    797.56053   -7036063.4            0   -6824929.5    51564.446 
    8400    798.02043     -7036186            0   -6824930.3    51546.393 
    8450    798.05312   -7036193.9            0   -6824929.6    51537.686 
    8500    798.28801   -7036256.6            0   -6824930.1    51532.577 
    8550    797.64071   -7036083.5            0   -6824928.3    51565.186 
    8600    797.70775   -7036101.2            0   -6824928.3    51561.702 
    8650    797.70198   -7036099.1            0   -6824927.7    51556.606 
    8700    798.25408   -7036245.6            0     -6824928    51536.156 
    8750    797.28899   -7035988.1            0   -6824926.1    51577.268 
    8800    798.25795   -7036246.2            0   -6824927.6    51535.407 
    8850    797.41787   -7036022.7            0   -6824926.5    51569.402 
    8900    797.51938   -7036049.6            0   -6824926.5    51566.468 
    8950    797.39813   -7036017.5            0   -6824926.6    51569.325 
    9000    797.76471   -7036113.6            0   -6824925.6    51552.225 
    9050    797.79644   -7036122.5            0   -6824926.1    51563.164 
    9100    798.23432   -7036238.7            0   -6824926.4    51536.014 
    9150    797.22663   -7035969.2            0   -6824923.7    51576.906 
    9200    797.51789   -7036046.6            0   -6824923.9    51567.073 
    9250    798.22414   -7036235.1            0   -6824925.5    51543.461 
    9300    797.28482   -7035984.3            0   -6824923.4    51576.629 
    9350    797.80574   -7036123.1            0   -6824924.2    51551.045 
    9400    797.33774   -7035996.4            0   -6824921.4    51577.174 
    9450     798.3967   -7036279.7            0   -6824924.4    51532.622 
    9500    798.18841   -7036223.8            0   -6824923.7    51535.873 
    9550    797.40812   -7036015.1            0   -6824921.5    51563.644 
    9600    797.56409   -7036055.3            0   -6824920.5    51566.412 
    9650    797.86438   -7036135.4            0     -6824921    51549.098 
    9700    797.90302   -7036144.8            0   -6824920.2    51555.456 
    9750    798.00051   -7036170.9            0   -6824920.5     51550.15 
    9800    798.06677   -7036187.5            0   -6824919.5    51546.489 
    9850    797.86596   -7036133.9            0   -6824919.1    51552.235 
    9900    797.99998   -7036168.8            0   -6824918.6    51548.313 
    9950    797.77052   -7036106.9            0   -6824917.4    51554.995 
   10000    798.09709     -7036193            0     -6824917    51547.073 
Loop time of 553.707 on 16 procs for 10000 steps with 2048000 atoms

Performance: 7.802 ns/day, 3.076 hours/ns, 18.060 timesteps/s
99.5% CPU use with 16 MPI tasks x 1 OpenMP threads

MPI task timing breakdown:
Section |  min time  |  avg time  |  max time  |%varavg| %total
---------------------------------------------------------------
Pair    | 438.1      | 441.12     | 444.16     |   7.0 | 79.67
Neigh   | 47.609     | 47.854     | 49.011     |   4.9 |  8.64
Comm    | 33.143     | 35.497     | 38.104     |  25.0 |  6.41
Output  | 0.098826   | 0.14245    | 0.25896    |  17.6 |  0.03
Modify  | 20.146     | 20.77      | 21.448     |   8.6 |  3.75
Other   |            | 8.323      |            |       |  1.50

Nlocal:         128000 ave      128163 max      127792 min
Histogram: 1 1 2 2 0 3 1 3 0 3
Nghost:        49868.9 ave       50075 max       49705 min
Histogram: 3 0 3 1 3 0 2 2 1 1
Neighs:    4.83205e+06 ave 4.85739e+06 max 4.80313e+06 min
Histogram: 2 0 2 2 2 1 1 3 1 2

Total # of neighbors = 77312760
Ave neighs/atom = 37.750371
Neighbor list builds = 1669
Dangerous builds = 32
Total wall time: 0:09:13
Intel(R) VTune(TM) Profiler 2022.2.0 collection completed successfully. Use the "aps --report /home/ubuntu/lammps/bench/aps_result_20220703" command to generate textual and HTML reports for the profiling session.
