LAMMPS (7 Jan 2022)
  using 1 OpenMP thread(s) per MPI task
Lattice spacing in x,y,z = 3.615 3.615 3.615
Created orthogonal box = (0 0 0) to (144.6 144.6 144.6)
  2 by 2 by 2 MPI processor grid
Created 256000 atoms
  using lattice units in orthogonal box = (0 0 0) to (144.6 144.6 144.6)
  create_atoms CPU = 0.029 seconds
Reading eam potential file Cu_u3.eam with DATE: 2007-06-11
----------------------------------------------------------
Using INTEL Package without Coprocessor.
Compiler: Intel Classic C++ 20.21.5 / Intel(R) C++ g++ 9.3 mode
SIMD compiler directives: Enabled
Precision: single
----------------------------------------------------------
Neighbor list info ...
  update every 1 steps, delay 5 steps, check yes
  max neighbors/atom: 2000, page size: 100000
  master list distance cutoff = 5.95
  ghost atom cutoff = 5.95
  binsize = 2.975, bins = 49 49 49
  1 neighbor lists, perpetual/occasional/extra = 1 0 0
  (1) pair eam/intel, perpetual
      attributes: half, newton on, intel
      pair build: half/bin/newton/intel
      stencil: half/bin/3d
      bin: intel
Setting up Verlet run ...
  Unit style    : metal
  Current step  : 0
  Time step     : 0.005
Per MPI rank memory allocation (min/avg/max) = 283.3 | 283.3 | 283.3 Mbytes
Step Temp E_pair E_mol TotEng Press 
       0         1600   -906225.91            0   -853281.16    18704.063 
      50    780.37024   -878941.37            0   -853118.55    52325.508 
     100    798.91522   -879561.38            0    -853124.9    51436.897 
Loop time of 4.3751 on 8 procs for 100 steps with 256000 atoms

Performance: 9.874 ns/day, 2.431 hours/ns, 22.857 timesteps/s
70.6% CPU use with 8 MPI tasks x 1 OpenMP threads

MPI task timing breakdown:
Section |  min time  |  avg time  |  max time  |%varavg| %total
---------------------------------------------------------------
Pair    | 2.5149     | 2.6362     | 2.9933     |  11.3 | 60.25
Neigh   | 0.11854    | 0.13625    | 0.19182    |   7.5 |  3.11
Comm    | 1.1195     | 1.392      | 1.5223     |  13.0 | 31.82
Output  | 0.00020506 | 0.00022437 | 0.00024421 |   0.0 |  0.01
Modify  | 0.024123   | 0.027492   | 0.042759   |   3.5 |  0.63
Other   |            | 0.183      |            |       |  4.18

Nlocal:          32000 ave       32097 max       31720 min
Histogram: 1 0 0 0 0 0 0 3 1 3
Nghost:        19909.8 ave       20189 max       19814 min
Histogram: 3 1 3 0 0 0 0 0 0 1
Neighs:    1.20727e+06 ave 1.21146e+06 max 1.19592e+06 min
Histogram: 1 0 0 0 0 0 0 3 2 2

Total # of neighbors = 9658196
Ave neighs/atom = 37.727328
Neighbor list builds = 15
Dangerous builds = 0
Total wall time: 0:00:04
Intel(R) VTune(TM) Profiler 2022.2.0 collection completed successfully. Use the "aps --report /home/ubuntu/lammps/bench/aps_result_20220531" command to generate textual and HTML reports for the profiling session.
