LAMMPS (7 Jan 2022)
  using 1 OpenMP thread(s) per MPI task
New timer settings: style=full  mode=nosync  timeout=off
Lattice spacing in x,y,z = 3.615 3.615 3.615
Created orthogonal box = (0 0 0) to (72.3 72.3 72.3)
  1 by 1 by 2 MPI processor grid
Created 32000 atoms
  using lattice units in orthogonal box = (0 0 0) to (72.3 72.3 72.3)
  create_atoms CPU = 0.006 seconds
Reading eam potential file Cu_u3.eam with DATE: 2007-06-11
----------------------------------------------------------
Using INTEL Package without Coprocessor.
Compiler: Intel Classic C++ 20.21.5 / Intel(R) C++ g++ 9.3 mode
SIMD compiler directives: Enabled
Precision: mixed
----------------------------------------------------------
Neighbor list info ...
  update every 1 steps, delay 5 steps, check yes
  max neighbors/atom: 2000, page size: 100000
  master list distance cutoff = 5.95
  ghost atom cutoff = 5.95
  binsize = 2.975, bins = 25 25 25
  1 neighbor lists, perpetual/occasional/extra = 1 0 0
  (1) pair eam/intel, perpetual
      attributes: half, newton on, intel
      pair build: half/bin/newton/intel
      stencil: half/bin/3d
      bin: intel
Setting up Verlet run ...
  Unit style    : metal
  Current step  : 0
  Time step     : 0.005
Per MPI rank memory allocation (min/avg/max) = 143.1 | 143.1 | 143.1 Mbytes
Step Temp E_pair E_mol TotEng Press 
       0         1600   -113279.97            0   -106662.06    18703.495 
      50    781.69067   -109873.35            0   -106640.13    52273.083 
     100    801.83213    -109957.3            0   -106640.76    51322.807 
Loop time of 0.861879 on 2 procs for 100 steps with 32000 atoms

Performance: 50.123 ns/day, 0.479 hours/ns, 116.026 timesteps/s
98.4% CPU use with 2 MPI tasks x 1 OpenMP threads

MPI task timing breakdown:
Section |  min time  |  avg time  |  max time  |%varavg|  %CPU | %total
-----------------------------------------------------------------------
Pair    | 0.71185    | 0.71284    | 0.71382    |   0.1 |  98.4 | 82.71
Neigh   | 0.063484   | 0.064425   | 0.065367   |   0.4 |  98.9 |  7.48
Comm    | 0.042403   | 0.044195   | 0.045987   |   0.9 |  97.7 |  5.13
Output  | 0.00016901 | 0.00018444 | 0.00019987 |   0.0 | 100.0 |  0.02
Modify  | 0.027059   | 0.027109   | 0.02716    |   0.0 |  98.1 |  3.15
Other   |            | 0.01313    |            |       |       |  1.52

Nlocal:          16000 ave       16001 max       15999 min
Histogram: 1 0 0 0 0 0 0 0 0 1
Nghost:        13819.5 ave       13820 max       13819 min
Histogram: 1 0 0 0 0 0 0 0 0 1
Neighs:         603891 ave      604032 max      603750 min
Histogram: 1 0 0 0 0 0 0 0 0 1

Total # of neighbors = 1207782
Ave neighs/atom = 37.743187
Neighbor list builds = 13
Dangerous builds = 0
Total wall time: 0:00:00
Intel(R) VTune(TM) Profiler 2022.2.0 collection completed successfully. Use the "aps --report /home/ubuntu/lammps/bench/aps_result_20220519" command to generate textual and HTML reports for the profiling session.
