LAMMPS (7 Jan 2022)
  using 1 OpenMP thread(s) per MPI task
Lattice spacing in x,y,z = 3.615 3.615 3.615
Created orthogonal box = (0 0 0) to (216.9 216.9 216.9)
  1 by 1 by 2 MPI processor grid
Created 864000 atoms
  using lattice units in orthogonal box = (0 0 0) to (216.9 216.9 216.9)
  create_atoms CPU = 0.068 seconds
Reading eam potential file Cu_u3.eam with DATE: 2007-06-11
----------------------------------------------------------
Using INTEL Package without Coprocessor.
Compiler: Intel Classic C++ 20.21.5 / Intel(R) C++ g++ 9.3 mode
SIMD compiler directives: Enabled
Precision: mixed
----------------------------------------------------------
Neighbor list info ...
  update every 1 steps, delay 5 steps, check yes
  max neighbors/atom: 2000, page size: 100000
  master list distance cutoff = 5.95
  ghost atom cutoff = 5.95
  binsize = 2.975, bins = 73 73 73
  1 neighbor lists, perpetual/occasional/extra = 1 0 0
  (1) pair eam/intel, perpetual
      attributes: half, newton on, intel
      pair build: half/bin/newton/intel
      stencil: half/bin/3d
      bin: intel
Setting up Verlet run ...
  Unit style    : metal
  Current step  : 0
  Time step     : 0.005
Per MPI rank memory allocation (min/avg/max) = 3762 | 3762 | 3762 Mbytes
Step Temp E_pair E_mol TotEng Press 
       0         1600   -3058559.2            0   -2879870.1    18704.286 
      50    780.51283   -2966447.5            0   -2879279.4    52309.311 
     100     798.5709   -2968476.9            0     -2879292    51460.468 
Loop time of 34.9218 on 2 procs for 100 steps with 864000 atoms

Performance: 1.237 ns/day, 19.401 hours/ns, 2.864 timesteps/s
68.0% CPU use with 2 MPI tasks x 1 OpenMP threads

MPI task timing breakdown:
Section |  min time  |  avg time  |  max time  |%varavg| %total
---------------------------------------------------------------
Pair    | 21.933     | 25.781     | 29.629     |  75.8 | 73.82
Neigh   | 1.4248     | 2.147      | 2.8692     |  49.3 |  6.15
Comm    | 1.2147     | 5.9816     | 10.749     | 194.9 | 17.13
Output  | 0.0022018  | 0.0022154  | 0.0022289  |   0.0 |  0.01
Modify  | 0.46535    | 0.70205    | 0.93875    |  28.2 |  2.01
Other   |            | 0.3079     |            |       |  0.88

Nlocal:         432000 ave      432002 max      431998 min
Histogram: 1 0 0 0 0 0 0 0 0 1
Nghost:         108316 ave      108317 max      108314 min
Histogram: 1 0 0 0 0 0 0 0 0 1
Neighs:    1.62978e+07 ave 1.62979e+07 max 1.62977e+07 min
Histogram: 1 0 0 0 0 0 0 0 0 1

Total # of neighbors = 32595635
Ave neighs/atom = 37.726429
Neighbor list builds = 15
Dangerous builds = 0
Total wall time: 0:00:35
Intel(R) VTune(TM) Profiler 2022.2.0 collection completed successfully. Use the "aps --report /home/ubuntu/lammps/bench/aps_result_20220526" command to generate textual and HTML reports for the profiling session.
