LAMMPS (7 Jan 2022)
  using 1 OpenMP thread(s) per MPI task
New timer settings: style=full  mode=nosync  timeout=off
Lattice spacing in x,y,z = 3.615 3.615 3.615
Created orthogonal box = (0 0 0) to (216.9 216.9 216.9)
  1 by 1 by 1 MPI processor grid
Created 864000 atoms
  using lattice units in orthogonal box = (0 0 0) to (216.9 216.9 216.9)
  create_atoms CPU = 0.101 seconds
Reading eam potential file Cu_u3.eam with DATE: 2007-06-11
----------------------------------------------------------
Using INTEL Package without Coprocessor.
Compiler: Intel Classic C++ 20.21.5 / Intel(R) C++ g++ 9.3 mode
SIMD compiler directives: Enabled
Precision: mixed
----------------------------------------------------------
Neighbor list info ...
  update every 1 steps, delay 5 steps, check yes
  max neighbors/atom: 2000, page size: 100000
  master list distance cutoff = 5.95
  ghost atom cutoff = 5.95
  binsize = 2.975, bins = 73 73 73
  1 neighbor lists, perpetual/occasional/extra = 1 0 0
  (1) pair eam/intel, perpetual
      attributes: half, newton on, intel
      pair build: half/bin/newton/intel
      stencil: half/bin/3d
      bin: intel
Setting up Verlet run ...
  Unit style    : metal
  Current step  : 0
  Time step     : 0.005
Per MPI rank memory allocation (min/avg/max) = 7504 | 7504 | 7504 Mbytes
Step Temp E_pair E_mol TotEng Press 
       0         1600   -3058559.2            0   -2879870.1    18704.286 
      50    780.51283   -2966447.5            0   -2879279.4    52309.312 
     100    798.57094   -2968476.9            0     -2879292    51460.464 
Loop time of 34.9016 on 1 procs for 100 steps with 864000 atoms

Performance: 1.238 ns/day, 19.390 hours/ns, 2.865 timesteps/s
99.2% CPU use with 1 MPI tasks x 1 OpenMP threads

MPI task timing breakdown:
Section |  min time  |  avg time  |  max time  |%varavg|  %CPU | %total
-----------------------------------------------------------------------
Pair    | 29.425     | 29.425     | 29.425     |   0.0 |  99.3 | 84.31
Neigh   | 2.9099     | 2.9099     | 2.9099     |   0.0 |  99.2 |  8.34
Comm    | 1.125      | 1.125      | 1.125      |   0.0 |  99.1 |  3.22
Output  | 0.0048123  | 0.0048123  | 0.0048123  |   0.0 | 100.0 |  0.01
Modify  | 1.0598     | 1.0598     | 1.0598     |   0.0 |  99.3 |  3.04
Other   |            | 0.3772     |            |       |       |  1.08

Nlocal:         864000 ave      864000 max      864000 min
Histogram: 1 0 0 0 0 0 0 0 0 0
Nghost:         160182 ave      160182 max      160182 min
Histogram: 1 0 0 0 0 0 0 0 0 0
Neighs:    3.25956e+07 ave 3.25956e+07 max 3.25956e+07 min
Histogram: 1 0 0 0 0 0 0 0 0 0

Total # of neighbors = 32595631
Ave neighs/atom = 37.726425
Neighbor list builds = 15
Dangerous builds = 0
Total wall time: 0:00:35
Intel(R) VTune(TM) Profiler 2022.2.0 collection completed successfully. Use the "aps --report /home/ubuntu/lammps/bench/aps_result_20220519" command to generate textual and HTML reports for the profiling session.
