LAMMPS (7 Jan 2022)
  using 1 OpenMP thread(s) per MPI task
Lattice spacing in x,y,z = 3.615 3.615 3.615
Created orthogonal box = (0 0 0) to (144.6 144.6 144.6)
  4 by 4 by 4 MPI processor grid
Created 256000 atoms
  using lattice units in orthogonal box = (0 0 0) to (144.6 144.6 144.6)
  create_atoms CPU = 0.001 seconds
Reading eam potential file Cu_u3.eam with DATE: 2007-06-11
----------------------------------------------------------
Using INTEL Package without Coprocessor.
Compiler: Intel Classic C++ 20.21.5 / Intel(R) C++ g++ 9.3 mode
SIMD compiler directives: Enabled
Precision: mixed
----------------------------------------------------------
Neighbor list info ...
  update every 1 steps, delay 5 steps, check yes
  max neighbors/atom: 2000, page size: 100000
  master list distance cutoff = 5.95
  ghost atom cutoff = 5.95
  binsize = 2.975, bins = 49 49 49
  1 neighbor lists, perpetual/occasional/extra = 1 0 0
  (1) pair eam/intel, perpetual
      attributes: half, newton on, intel
      pair build: half/bin/newton/intel
      stencil: half/bin/3d
      bin: intel
Setting up Verlet run ...
  Unit style    : metal
  Current step  : 0
  Time step     : 0.005
Per MPI rank memory allocation (min/avg/max) = 32.92 | 37.72 | 43.02 Mbytes
Step Temp E_pair E_mol TotEng Press 
       0         1600   -906239.72            0   -853294.98        18704 
      50     780.3702   -878942.74            0   -853119.92    52325.527 
     100    798.91523   -879560.78            0    -853124.3    51436.889 
     150    795.68006   -879452.85            0   -853123.43    51622.572 
     200    797.93062   -879527.84            0   -853123.94    51516.044 
     250    797.51864   -879514.04            0   -853123.77    51535.149 
     300    798.09556   -879533.17            0   -853123.81    51506.856 
     350    796.90743   -879493.26            0   -853123.22     51573.85 
     400    797.85468    -879524.9            0   -853123.51    51551.578 
     450    798.42153   -879543.81            0   -853123.67    51521.842 
     500    799.16321   -879568.48            0    -853123.8    51492.879 
     550    796.86495   -879491.84            0   -853123.21        51561 
     600    797.12797   -879500.49            0   -853123.15    51559.677 
     650    797.44415    -879511.3            0    -853123.5    51554.934 
     700    796.82748   -879490.53            0   -853123.13    51588.505 
     750    798.83199   -879557.13            0   -853123.41    51491.621 
     800    798.59303   -879549.22            0   -853123.41    51509.506 
     850    798.37245   -879541.68            0   -853123.16     51525.49 
     900    797.94928   -879527.27            0   -853122.76    51540.984 
     950    799.17223   -879568.31            0   -853123.33    51497.065 
    1000    799.62646   -879583.28            0   -853123.27    51479.783 
    1050    798.67275   -879551.74            0   -853123.29    51478.582 
    1100    796.96555    -879494.6            0   -853122.64    51568.559 
    1150    796.76313   -879487.79            0   -853122.53    51575.238 
    1200    796.28858   -879471.72            0   -853122.16    51602.835 
    1250     797.0514   -879497.15            0   -853122.35    51554.766 
    1300     797.4287   -879509.59            0    -853122.3    51558.555 
    1350     799.0274   -879562.84            0   -853122.65    51494.753 
    1400    797.30173   -879505.03            0   -853121.95    51579.461 
    1450    797.51626   -879512.34            0   -853122.15     51548.52 
    1500    799.20984   -879568.78            0   -853122.55    51499.245 
    1550    797.48056   -879511.11            0   -853122.11    51549.012 
    1600    797.51347   -879512.06            0   -853121.97     51554.49 
    1650    797.20579   -879501.73            0   -853121.82    51584.558 
    1700    797.87864    -879524.6            0   -853122.42    51527.899 
    1750    797.74598   -879519.65            0   -853121.86     51541.83 
    1800    798.08461      -879531            0   -853122.01    51526.412 
    1850    799.04323   -879562.75            0   -853122.04    51501.445 
    1900    798.00522   -879528.02            0   -853121.65    51551.167 
    1950    796.54171   -879479.64            0    -853121.7    51593.282 
    2000    798.74649   -879553.07            0   -853122.17    51510.735 
    2050    799.98769   -879594.32            0   -853122.35    51461.482 
    2100    798.14946   -879532.91            0   -853121.78    51546.342 
    2150    798.85637   -879556.78            0   -853122.25    51504.905 
    2200    796.91836      -879492            0    -853121.6     51588.13 
    2250    797.35446   -879506.85            0   -853122.02    51561.135 
    2300    795.91964   -879458.96            0    -853121.6    51634.226 
    2350    796.74311   -879486.23            0   -853121.63    51577.004 
    2400    796.27391    -879470.1            0   -853121.03    51618.826 
    2450    797.78607   -879520.88            0   -853121.76    51549.309 
    2500    796.79975   -879487.38            0    -853120.9    51572.518 
    2550    797.04331   -879495.62            0   -853121.08     51591.24 
    2600    798.90753    -879557.9            0   -853121.68    51499.996 
    2650    797.93438   -879525.26            0   -853121.24    51535.253 
    2700    797.20178   -879500.88            0    -853121.1    51564.523 
    2750    798.28703   -879536.94            0   -853121.25    51527.275 
    2800    798.96854   -879560.07            0   -853121.83    51492.778 
    2850    798.51637   -879544.79            0   -853121.51    51510.225 
    2900    798.12847   -879531.75            0   -853121.31    51538.154 
    2950    797.40767   -879507.93            0   -853121.34    51552.662 
    3000    796.48076   -879477.02            0    -853121.1     51583.77 
    3050    799.11029   -879564.31            0   -853121.38    51497.989 
    3100    798.17032   -879532.76            0   -853120.93    51526.979 
    3150    797.58276   -879513.37            0   -853120.98    51554.783 
    3200     798.7013   -879550.74            0   -853121.34    51523.043 
    3250    797.67956   -879516.53            0   -853120.94    51561.092 
    3300    797.67581   -879516.43            0   -853120.97    51548.902 
    3350     798.8958   -879556.83            0   -853120.99    51508.137 
    3400    798.01046    -879527.5            0   -853120.96    51528.949 
    3450    798.29592   -879536.37            0   -853120.38    51536.417 
    3500    798.04005   -879528.09            0   -853120.57    51521.429 
    3550    797.14704   -879498.29            0   -853120.33    51584.316 
    3600    797.73797   -879517.97            0   -853120.45    51556.097 
    3650    798.27999   -879535.82            0   -853120.36    51539.093 
    3700    796.78219   -879486.16            0   -853120.26    51584.054 
    3750    799.43541   -879574.12            0   -853120.43    51474.385 
    3800    797.26473   -879501.76            0    -853119.9    51566.027 
    3850    797.89143    -879523.1            0    -853120.5    51543.403 
    3900     798.4117    -879540.1            0   -853120.29    51525.212 
    3950    798.47669   -879542.42            0   -853120.45    51516.718 
    4000     797.5888   -879513.17            0   -853120.59     51549.73 
    4050    798.33354   -879537.53            0    -853120.3    51551.421 
    4100    798.04635   -879528.35            0   -853120.62    51542.178 
    4150    797.54168   -879511.38            0   -853120.35    51553.198 
    4200    796.60697   -879479.82            0   -853119.72     51607.29 
    4250    798.25795   -879534.36            0   -853119.63    51531.587 
    4300    797.56226   -879511.65            0   -853119.94     51553.94 
    4350    797.85488   -879521.58            0   -853120.19    51550.076 
    4400     797.6263   -879513.81            0   -853119.99    51557.589 
    4450    798.18246   -879532.03            0    -853119.8    51521.299 
    4500    798.41696   -879539.45            0   -853119.46    51533.884 
    4550    798.64104   -879547.33            0   -853119.93    51514.417 
    4600    798.47586   -879541.83            0   -853119.89    51511.451 
    4650     796.8058   -879485.82            0   -853119.14     51592.32 
    4700    797.49492   -879508.98            0    -853119.5    51553.801 
    4750    797.03119   -879493.19            0   -853119.06    51585.097 
    4800    797.88057   -879521.91            0   -853119.67    51557.157 
    4850    798.72604    -879549.6            0   -853119.38    51510.166 
    4900    797.29451   -879502.22            0   -853119.37    51562.133 
    4950    797.17209   -879497.74            0   -853118.94    51556.767 
    5000    797.90525   -879522.33            0   -853119.27    51540.221 
    5050    799.20675   -879565.48            0   -853119.35    51488.127 
    5100    797.81325   -879519.13            0   -853119.12    51547.305 
    5150    799.48701   -879574.45            0   -853119.05    51475.772 
    5200    796.93975   -879489.98            0   -853118.88    51575.121 
    5250    798.66772    -879547.4            0   -853119.11    51505.177 
    5300    796.99057   -879491.31            0   -853118.52    51591.264 
    5350     796.9938   -879491.43            0   -853118.53    51570.574 
    5400    797.48218    -879507.5            0   -853118.44    51567.139 
    5450    798.07657   -879527.39            0   -853118.66    51539.501 
    5500    797.76097    -879516.5            0   -853118.22    51552.546 
    5550    798.06064   -879526.61            0   -853118.41    51547.682 
    5600    798.46884   -879540.11            0    -853118.4    51539.078 
    5650    796.76171   -879483.25            0   -853118.03    51609.965 
    5700    798.81031   -879551.38            0   -853118.38    51543.823 
    5750    798.79748   -879550.67            0   -853118.09    51513.493 
    5800     800.1224      -879595            0   -853118.57    51463.902 
    5850    798.22367   -879531.62            0   -853118.03    51518.396 
    5900    798.54422   -879542.54            0   -853118.34    51508.274 
    5950    797.84865   -879519.07            0   -853117.88    51562.256 
    6000    797.49782   -879507.42            0   -853117.85    51579.795 
    6050    799.08161   -879560.48            0   -853118.49    51512.675 
    6100    798.71699   -879548.01            0   -853118.09    51522.197 
    6150    797.84532   -879518.78            0    -853117.7    51547.583 
    6200    797.10999   -879494.46            0   -853117.71    51555.776 
    6250      796.646   -879478.61            0   -853117.23    51594.341 
    6300    797.60801   -879510.64            0   -853117.41     51550.79 
    6350    797.10892   -879493.99            0   -853117.28    51569.492 
    6400    799.12683   -879561.31            0   -853117.83    51508.137 
    6450    797.49424   -879506.53            0   -853117.07    51577.933 
    6500    798.72315   -879547.49            0   -853117.36    51522.736 
    6550     797.5261   -879507.45            0   -853116.93    51574.734 
    6600    798.36073   -879535.52            0   -853117.39    51534.979 
    6650     797.4841   -879506.37            0   -853117.25    51582.793 
    6700     798.4215   -879537.49            0   -853117.35    51538.928 
    6750    798.53102   -879541.19            0   -853117.43    51538.944 
    6800    798.09187   -879526.67            0   -853117.44     51538.46 
    6850    797.21071   -879496.69            0   -853116.61    51570.026 
    6900    797.58766   -879509.62            0   -853117.07    51552.213 
    6950    798.00154   -879522.79            0   -853116.55    51556.686 
    7000    796.82969   -879483.77            0    -853116.3    51594.323 
    7050    799.57842   -879575.68            0   -853117.25    51472.832 
    7100    797.07941   -879492.32            0   -853116.59    51569.314 
    7150     797.7447   -879514.44            0   -853116.69    51548.802 
    7200    797.71983   -879513.55            0   -853116.62    51578.526 
    7250    798.81826   -879550.35            0   -853117.08    51516.864 
    7300    797.15163   -879494.71            0   -853116.59    51563.734 
    7350    798.95728   -879554.84            0   -853116.97    51492.729 
    7400    798.45045   -879537.63            0   -853116.53    51532.892 
    7450    796.80252   -879482.66            0   -853116.09    51601.514 
    7500    798.00191   -879522.74            0   -853116.48    51558.758 
    7550    797.02082   -879490.06            0   -853116.27    51587.533 
    7600    795.59995   -879442.85            0   -853116.07    51638.015 
    7650    797.84792   -879517.39            0   -853116.23    51551.354 
    7700    797.08975   -879491.93            0   -853115.86    51583.585 
    7750    798.06496   -879524.27            0   -853115.93    51536.358 
    7800    799.26451   -879564.21            0   -853116.17    51495.141 
    7850     796.8504   -879483.85            0    -853115.7    51607.293 
    7900    798.60861   -879542.66            0   -853116.33    51522.405 
    7950    798.40722   -879535.92            0   -853116.26    51521.718 
    8000    798.33719   -879533.78            0   -853116.43      51531.1 
    8050    797.57805   -879507.78            0   -853115.55    51563.225 
    8100    797.41466   -879502.78            0   -853115.96    51561.049 
    8150    797.08712   -879492.13            0   -853116.15    51579.052 
    8200    798.15168   -879527.27            0   -853116.06    51553.606 
    8250    797.73768   -879513.09            0   -853115.58    51545.649 
    8300    798.75593   -879547.31            0    -853116.1    51510.879 
    8350    798.00828   -879522.12            0   -853115.65    51555.734 
    8400    798.02803   -879523.13            0   -853116.01    51534.422 
    8450    799.11176   -879559.04            0   -853116.06     51497.38 
    8500    798.14018    -879526.2            0   -853115.37     51561.51 
    8550    797.86119   -879516.97            0   -853115.37    51546.575 
    8600    798.22026   -879529.14            0   -853115.66    51522.646 
    8650    798.56904   -879540.05            0   -853115.03    51545.224 
    8700    798.23214   -879529.13            0   -853115.25    51557.309 
    8750    797.32952    -879498.9            0   -853114.89    51592.501 
    8800    798.19491   -879528.12            0   -853115.48    51532.787 
    8850    798.91104   -879551.84            0    -853115.5    51519.017 
    8900    798.10385   -879524.61            0   -853114.98     51554.45 
    8950    796.96401   -879486.75            0   -853114.84     51590.78 
    9000     799.0778   -879556.94            0   -853115.09    51511.468 
    9050    797.16884   -879493.07            0   -853114.38    51592.585 
    9100    797.31464   -879498.12            0   -853114.61    51573.395 
    9150    798.35669    -879532.9            0    -853114.9    51533.818 
    9200    797.29016    -879497.6            0   -853114.89    51572.548 
    9250    798.49484   -879537.38            0   -853114.81    51511.882 
    9300    797.59177   -879507.24            0   -853114.56    51546.562 
    9350     799.5135   -879571.32            0   -853115.04    51489.638 
    9400    799.48431   -879570.42            0   -853115.11    51479.929 
    9450    797.98071   -879520.34            0   -853114.79    51545.575 
    9500    796.08548    -879457.1            0   -853114.26    51625.911 
    9550    796.54155   -879472.02            0   -853114.09    51619.508 
    9600    798.18485   -879527.18            0   -853114.87     51552.36 
    9650    799.72679   -879578.28            0   -853114.95    51478.762 
    9700    798.03559   -879521.81            0   -853114.44    51547.975 
    9750    797.53516   -879504.82            0      -853114    51569.934 
    9800    796.76206   -879478.72            0   -853113.49    51586.901 
    9850    798.28338   -879529.56            0   -853113.99    51534.507 
    9900     798.3522   -879531.84            0   -853113.99    51533.247 
    9950    796.00305   -879453.57            0   -853113.46    51612.159 
   10000    797.66622   -879508.85            0    -853113.7    51561.244 
Loop time of 21.3222 on 64 procs for 10000 steps with 256000 atoms

Performance: 202.606 ns/day, 0.118 hours/ns, 468.995 timesteps/s
97.6% CPU use with 64 MPI tasks x 1 OpenMP threads

MPI task timing breakdown:
Section |  min time  |  avg time  |  max time  |%varavg| %total
---------------------------------------------------------------
Pair    | 15.737     | 16.078     | 16.399     |   4.1 | 75.40
Neigh   | 1.5571     | 1.6431     | 1.7243     |   3.0 |  7.71
Comm    | 2.1873     | 2.6386     | 3.0572     |  11.7 | 12.38
Output  | 0.014593   | 0.016779   | 0.020899   |   1.1 |  0.08
Modify  | 0.47371    | 0.59829    | 0.71511    |   7.5 |  2.81
Other   |            | 0.3476     |            |       |  1.63

Nlocal:           4000 ave        4066 max        3928 min
Histogram: 1 1 7 4 11 18 15 5 1 1
Nghost:        5840.66 ave        5912 max        5774 min
Histogram: 1 1 4 16 16 12 5 7 1 1
Neighs:         151003 ave      153941 max      147827 min
Histogram: 1 1 3 8 11 24 10 4 1 1

Total # of neighbors = 9664216
Ave neighs/atom = 37.750844
Neighbor list builds = 1528
Dangerous builds = 1
Total wall time: 0:00:21
Intel(R) VTune(TM) Profiler 2022.2.0 collection completed successfully. Use the "aps --report /home/ubuntu/lammps/bench/aps_result_20220703" command to generate textual and HTML reports for the profiling session.
