LAMMPS (7 Jan 2022)
  using 1 OpenMP thread(s) per MPI task
Lattice spacing in x,y,z = 3.615 3.615 3.615
Created orthogonal box = (0 0 0) to (216.9 216.9 216.9)
  4 by 4 by 4 MPI processor grid
Created 864000 atoms
  using lattice units in orthogonal box = (0 0 0) to (216.9 216.9 216.9)
  create_atoms CPU = 0.003 seconds
Reading eam potential file Cu_u3.eam with DATE: 2007-06-11
----------------------------------------------------------
Using INTEL Package without Coprocessor.
Compiler: Intel Classic C++ 20.21.5 / Intel(R) C++ g++ 9.3 mode
SIMD compiler directives: Enabled
Precision: single
----------------------------------------------------------
Neighbor list info ...
  update every 1 steps, delay 5 steps, check yes
  max neighbors/atom: 2000, page size: 100000
  master list distance cutoff = 5.95
  ghost atom cutoff = 5.95
  binsize = 2.975, bins = 73 73 73
  1 neighbor lists, perpetual/occasional/extra = 1 0 0
  (1) pair eam/intel, perpetual
      attributes: half, newton on, intel
      pair build: half/bin/newton/intel
      stencil: half/bin/3d
      bin: intel
Setting up Verlet run ...
  Unit style    : metal
  Current step  : 0
  Time step     : 0.005
Per MPI rank memory allocation (min/avg/max) = 120.8 | 120.8 | 120.8 Mbytes
Step Temp E_pair E_mol TotEng Press 
       0         1600   -3058722.9            0   -2880033.9    18704.226 
      50    780.51282   -2966449.7            0   -2879281.5    52309.308 
     100    798.57096   -2968477.6            0   -2879292.7    51460.456 
Loop time of 0.764733 on 64 procs for 100 steps with 864000 atoms

Performance: 56.490 ns/day, 0.425 hours/ns, 130.765 timesteps/s
96.5% CPU use with 64 MPI tasks x 1 OpenMP threads

MPI task timing breakdown:
Section |  min time  |  avg time  |  max time  |%varavg| %total
---------------------------------------------------------------
Pair    | 0.54942    | 0.57771    | 0.60518    |   3.3 | 75.54
Neigh   | 0.050598   | 0.057421   | 0.066077   |   2.6 |  7.51
Comm    | 0.050627   | 0.085451   | 0.1214     |  10.9 | 11.17
Output  | 0.00022719 | 0.0002804  | 0.0003875  |   0.0 |  0.04
Modify  | 0.024278   | 0.027295   | 0.030389   |   0.8 |  3.57
Other   |            | 0.01657    |            |       |  2.17

Nlocal:          13500 ave       13649 max       13352 min
Histogram: 2 1 5 10 17 10 11 4 2 2
Nghost:        11825.2 ave       11974 max       11677 min
Histogram: 2 2 4 11 10 17 10 5 1 2
Neighs:         509307 ave      516356 max      503205 min
Histogram: 2 1 7 15 15 9 8 4 2 1

Total # of neighbors = 32595632
Ave neighs/atom = 37.726426
Neighbor list builds = 15
Dangerous builds = 0
Total wall time: 0:00:00
Intel(R) VTune(TM) Profiler 2022.2.0 collection completed successfully. Use the "aps --report /home/ubuntu/lammps/bench/aps_result_20220601" command to generate textual and HTML reports for the profiling session.
