LAMMPS (7 Jan 2022)
  using 1 OpenMP thread(s) per MPI task
New timer settings: style=full  mode=nosync  timeout=off
Lattice spacing in x,y,z = 3.615 3.615 3.615
Created orthogonal box = (0 0 0) to (144.6 144.6 144.6)
  1 by 1 by 1 MPI processor grid
Created 256000 atoms
  using lattice units in orthogonal box = (0 0 0) to (144.6 144.6 144.6)
  create_atoms CPU = 0.041 seconds
Reading eam potential file Cu_u3.eam with DATE: 2007-06-11
----------------------------------------------------------
Using INTEL Package without Coprocessor.
Compiler: Intel Classic C++ 20.21.5 / Intel(R) C++ g++ 9.3 mode
SIMD compiler directives: Enabled
Precision: mixed
----------------------------------------------------------
Neighbor list info ...
  update every 1 steps, delay 5 steps, check yes
  max neighbors/atom: 2000, page size: 100000
  master list distance cutoff = 5.95
  ghost atom cutoff = 5.95
  binsize = 2.975, bins = 49 49 49
  1 neighbor lists, perpetual/occasional/extra = 1 0 0
  (1) pair eam/intel, perpetual
      attributes: half, newton on, intel
      pair build: half/bin/newton/intel
      stencil: half/bin/3d
      bin: intel
Setting up Verlet run ...
  Unit style    : metal
  Current step  : 0
  Time step     : 0.005
Per MPI rank memory allocation (min/avg/max) = 2232 | 2232 | 2232 Mbytes
Step Temp E_pair E_mol TotEng Press 
       0         1600   -906239.72            0   -853294.98        18704 
      50     780.3702   -878942.74            0   -853119.92    52325.524 
     100    798.91512   -879560.78            0    -853124.3    51436.874 
Loop time of 10.6999 on 1 procs for 100 steps with 256000 atoms

Performance: 4.037 ns/day, 5.944 hours/ns, 9.346 timesteps/s
99.2% CPU use with 1 MPI tasks x 1 OpenMP threads

MPI task timing breakdown:
Section |  min time  |  avg time  |  max time  |%varavg|  %CPU | %total
-----------------------------------------------------------------------
Pair    | 9.0349     | 9.0349     | 9.0349     |   0.0 |  99.2 | 84.44
Neigh   | 0.89093    | 0.89093    | 0.89093    |   0.0 |  99.3 |  8.33
Comm    | 0.31212    | 0.31212    | 0.31212    |   0.0 |  98.8 |  2.92
Output  | 0.0013106  | 0.0013106  | 0.0013106  |   0.0 | 100.0 |  0.01
Modify  | 0.33604    | 0.33604    | 0.33604    |   0.0 |  99.0 |  3.14
Other   |            | 0.1246     |            |       |       |  1.16

Nlocal:         256000 ave      256000 max      256000 min
Histogram: 1 0 0 0 0 0 0 0 0 0
Nghost:          73245 ave       73245 max       73245 min
Histogram: 1 0 0 0 0 0 0 0 0 0
Neighs:     9.6582e+06 ave  9.6582e+06 max  9.6582e+06 min
Histogram: 1 0 0 0 0 0 0 0 0 0

Total # of neighbors = 9658196
Ave neighs/atom = 37.727328
Neighbor list builds = 15
Dangerous builds = 0
Total wall time: 0:00:11
Intel(R) VTune(TM) Profiler 2022.2.0 collection completed successfully. Use the "aps --report /home/ubuntu/lammps/bench/aps_result_20220519" command to generate textual and HTML reports for the profiling session.
