LAMMPS (7 Jan 2022)
  using 1 OpenMP thread(s) per MPI task
Lattice spacing in x,y,z = 3.615 3.615 3.615
Created orthogonal box = (0 0 0) to (289.2 289.2 289.2)
  2 by 2 by 2 MPI processor grid
Created 2048000 atoms
  using lattice units in orthogonal box = (0 0 0) to (289.2 289.2 289.2)
  create_atoms CPU = 0.061 seconds
Reading eam potential file Cu_u3.eam with DATE: 2007-06-11
----------------------------------------------------------
Using INTEL Package without Coprocessor.
Compiler: Intel Classic C++ 20.21.5 / Intel(R) C++ g++ 9.3 mode
SIMD compiler directives: Enabled
Precision: double
----------------------------------------------------------
Neighbor list info ...
  update every 1 steps, delay 5 steps, check yes
  max neighbors/atom: 2000, page size: 100000
  master list distance cutoff = 5.95
  ghost atom cutoff = 5.95
  binsize = 2.975, bins = 98 98 98
  1 neighbor lists, perpetual/occasional/extra = 1 0 0
  (1) pair eam/intel, perpetual
      attributes: half, newton on, intel
      pair build: half/bin/newton/intel
      stencil: half/bin/3d
      bin: intel
Setting up Verlet run ...
  Unit style    : metal
  Current step  : 0
  Time step     : 0.005
Per MPI rank memory allocation (min/avg/max) = 2238 | 2238 | 2238 Mbytes
Step Temp E_pair E_mol TotEng Press 
       0         1600     -7249920            0   -6826360.6    18704.149 
      50    780.81547   -7031660.9            0   -6824959.8    52291.364 
     100    798.21786   -7036295.3            0   -6824987.4    51479.467 
Loop time of 23.5602 on 8 procs for 100 steps with 2048000 atoms

Performance: 1.834 ns/day, 13.089 hours/ns, 4.244 timesteps/s
75.1% CPU use with 8 MPI tasks x 1 OpenMP threads

MPI task timing breakdown:
Section |  min time  |  avg time  |  max time  |%varavg| %total
---------------------------------------------------------------
Pair    | 13.993     | 15.13      | 18.418     |  47.4 | 64.22
Neigh   | 0.91784    | 1.1568     | 1.8466     |  36.0 |  4.91
Comm    | 2.3618     | 6.4009     | 7.7466     |  88.9 | 27.17
Output  | 0.0015876  | 0.0037254  | 0.0044934  |   2.0 |  0.02
Modify  | 0.31913    | 0.36385    | 0.48665    |  11.0 |  1.54
Other   |            | 0.5045     |            |       |  2.14

Nlocal:         256000 ave      256345 max      255828 min
Histogram: 2 2 0 2 0 0 1 0 0 1
Nghost:        73245.1 ave       73416 max       72893 min
Histogram: 1 0 0 1 0 0 2 0 2 2
Neighs:    9.65782e+06 ave 9.66821e+06 max  9.6446e+06 min
Histogram: 2 0 0 0 0 2 1 0 1 2

Total # of neighbors = 77262570
Ave neighs/atom = 37.725864
Neighbor list builds = 15
Dangerous builds = 0
Total wall time: 0:00:24
Intel(R) VTune(TM) Profiler 2022.2.0 collection completed successfully. Use the "aps --report /home/ubuntu/lammps/bench/aps_result_20220531" command to generate textual and HTML reports for the profiling session.
