LAMMPS (7 Jan 2022)
  using 1 OpenMP thread(s) per MPI task
Lattice spacing in x,y,z = 3.615 3.615 3.615
Created orthogonal box = (0 0 0) to (216.9 216.9 216.9)
  4 by 4 by 4 MPI processor grid
Created 864000 atoms
  using lattice units in orthogonal box = (0 0 0) to (216.9 216.9 216.9)
  create_atoms CPU = 0.003 seconds
Reading eam potential file Cu_u3.eam with DATE: 2007-06-11
----------------------------------------------------------
Using INTEL Package without Coprocessor.
Compiler: Intel Classic C++ 20.21.5 / Intel(R) C++ g++ 9.3 mode
SIMD compiler directives: Enabled
Precision: mixed
----------------------------------------------------------
Neighbor list info ...
  update every 1 steps, delay 5 steps, check yes
  max neighbors/atom: 2000, page size: 100000
  master list distance cutoff = 5.95
  ghost atom cutoff = 5.95
  binsize = 2.975, bins = 73 73 73
  1 neighbor lists, perpetual/occasional/extra = 1 0 0
  (1) pair eam/intel, perpetual
      attributes: half, newton on, intel
      pair build: half/bin/newton/intel
      stencil: half/bin/3d
      bin: intel
Setting up Verlet run ...
  Unit style    : metal
  Current step  : 0
  Time step     : 0.005
Per MPI rank memory allocation (min/avg/max) = 121.2 | 121.2 | 121.2 Mbytes
Step Temp E_pair E_mol TotEng Press 
       0         1600   -3058559.2            0   -2879870.1    18704.286 
      50    780.51282   -2966447.5            0   -2879279.4    52309.317 
     100    798.57091   -2968476.9            0     -2879292    51460.464 
     150    796.91961   -2968292.3            0   -2879291.8    51559.444 
     200    797.22379   -2968326.7            0   -2879292.2    51553.415 
     250    797.26166   -2968330.9            0   -2879292.2    51553.184 
     300    797.92838   -2968405.3            0   -2879292.2    51531.595 
     350    797.55196     -2968363            0   -2879291.9    51545.477 
     400    798.29681   -2968447.6            0   -2879293.3    51519.132 
     450    798.23974   -2968440.9            0     -2879293     51516.92 
     500    797.75666   -2968385.4            0   -2879291.4    51542.907 
     550    796.85158   -2968284.1            0   -2879291.3    51587.719 
     600    798.25527   -2968441.4            0   -2879291.7    51515.138 
     650     797.3539   -2968339.3            0   -2879290.3    51552.249 
     700    797.40662   -2968345.6            0   -2879290.7    51554.444 
     750    797.52562   -2968359.3            0   -2879291.1     51546.79 
     800    798.06621   -2968419.7            0   -2879291.2    51533.031 
     850    797.30799   -2968334.5            0   -2879290.7    51570.451 
     900    797.46897   -2968353.4            0   -2879291.5    51541.354 
     950    798.03455   -2968415.9            0   -2879290.9    51527.657 
    1000    797.33247   -2968336.4            0   -2879289.8    51562.438 
    1050    797.89668   -2968399.3            0   -2879289.7    51535.296 
    1100    797.10682   -2968310.1            0   -2879288.7    51572.644 
    1150     797.5634   -2968362.3            0     -2879290    51558.142 
    1200    796.61139   -2968255.2            0   -2879289.1    51585.666 
    1250    797.74613   -2968381.8            0     -2879289    51544.837 
    1300    796.88339   -2968285.1            0   -2879288.6    51583.585 
    1350    798.46378   -2968462.7            0   -2879289.8     51518.34 
    1400    797.78905   -2968387.6            0     -2879290    51548.078 
    1450    797.84806   -2968392.6            0   -2879288.4    51548.645 
    1500     796.9003   -2968285.8            0   -2879287.5    51589.155 
    1550    797.90761   -2968400.2            0   -2879289.3    51535.896 
    1600    798.51575   -2968467.8            0     -2879289    51513.243 
    1650    798.01359   -2968411.3            0   -2879288.7     51539.58 
    1700    797.89737   -2968398.5            0   -2879288.9    51533.318 
    1750    797.77415   -2968384.2            0   -2879288.3    51542.272 
    1800    797.24428   -2968324.2            0   -2879287.4    51562.924 
    1850    797.20489   -2968319.8            0   -2879287.5    51565.049 
    1900    798.42721   -2968456.8            0     -2879288    51526.587 
    1950    798.04412   -2968414.7            0   -2879288.6    51536.041 
    2000    797.68094   -2968373.1            0   -2879287.6    51557.001 
    2050    797.58771   -2968362.6            0   -2879287.5     51556.58 
    2100    797.68795   -2968373.8            0   -2879287.5    51553.672 
    2150    797.85494   -2968392.2            0   -2879287.2    51541.703 
    2200    797.82656   -2968388.9            0   -2879287.1    51547.531 
    2250    798.21214   -2968432.8            0   -2879287.9    51529.877 
    2300     796.9007   -2968284.8            0   -2879286.4    51583.756 
    2350    798.86064   -2968505.3            0     -2879288    51504.702 
    2400    797.18636   -2968316.1            0   -2879285.8    51570.072 
    2450    797.46446   -2968347.8            0   -2879286.5     51556.76 
    2500    797.57161   -2968359.6            0   -2879286.3    51552.964 
    2550    796.60686   -2968251.1            0   -2879285.5    51589.282 
    2600    797.07821   -2968303.7            0   -2879285.5    51584.265 
    2650    797.87867   -2968393.1            0   -2879285.5    51542.522 
    2700     798.3669   -2968448.5            0   -2879286.3    51513.348 
    2750    798.03513   -2968411.2            0   -2879286.1    51540.159 
    2800    797.90675   -2968395.2            0   -2879284.5    51538.196 
    2850    798.48238   -2968460.3            0   -2879285.3    51517.176 
    2900    797.77319   -2968380.2            0   -2879284.4    51549.392 
    2950    798.90131   -2968506.9            0   -2879285.1    51494.412 
    3000     797.8118   -2968384.1            0     -2879284    51551.524 
    3050    797.86212   -2968390.5            0   -2879284.8    51543.273 
    3100    798.14992   -2968422.7            0   -2879284.8    51527.375 
    3150    798.79512   -2968495.5            0   -2879285.6    51511.515 
    3200    797.92606   -2968397.2            0   -2879284.3    51537.167 
    3250    797.21271   -2968317.4            0   -2879284.2    51571.079 
    3300    797.08082   -2968300.7            0   -2879282.2    51586.753 
    3350    798.21707   -2968429.2            0   -2879283.8    51526.295 
    3400    797.48074   -2968346.4            0   -2879283.2    51559.522 
    3450    798.18391   -2968425.6            0   -2879283.9    51533.663 
    3500    797.57401   -2968357.5            0   -2879283.9    51559.063 
    3550    798.50067     -2968461            0   -2879283.9    51515.805 
    3600    798.02296   -2968407.1            0   -2879283.4    51537.955 
    3650    797.75065   -2968376.8            0   -2879283.5    51545.733 
    3700    796.61638   -2968249.8            0   -2879283.2    51597.462 
    3750    798.39374   -2968448.6            0   -2879283.4    51522.467 
    3800    798.22158   -2968429.6            0   -2879283.7    51529.667 
    3850    798.16834   -2968423.7            0   -2879283.7    51538.991 
    3900     797.8972   -2968392.7            0     -2879283    51540.491 
    3950    797.48572     -2968346            0   -2879282.3    51559.564 
    4000    797.77822   -2968378.8            0   -2879282.5     51549.83 
    4050    798.01901   -2968405.6            0   -2879282.3    51541.519 
    4100    797.75855   -2968376.3            0   -2879282.1    51554.357 
    4150    797.90175   -2968391.6            0   -2879281.4    51547.553 
    4200    797.76794     -2968377            0   -2879281.7    51550.407 
    4250    797.73695   -2968373.4            0   -2879281.6    51556.116 
    4300    797.63725   -2968361.6            0   -2879280.9    51556.124 
    4350    797.79473   -2968379.4            0   -2879281.2    51549.238 
    4400    797.97405   -2968399.3            0     -2879281    51536.555 
    4450    797.88893   -2968389.8            0   -2879281.1    51546.039 
    4500    797.28071   -2968321.7            0   -2879280.8    51568.459 
    4550    797.20745   -2968313.1            0   -2879280.4    51576.206 
    4600    798.33303   -2968439.2            0   -2879280.8    51535.921 
    4650     797.8044     -2968380            0   -2879280.7    51546.777 
    4700    798.01521   -2968403.4            0   -2879280.6    51536.938 
    4750    798.14477   -2968418.7            0   -2879281.4    51535.498 
    4800    797.83775   -2968383.5            0   -2879280.5    51538.888 
    4850    797.89265   -2968388.6            0   -2879279.4    51544.295 
    4900    798.73295   -2968483.6            0   -2879280.6     51509.73 
    4950     797.8101   -2968379.6            0   -2879279.6     51536.96 
    5000     797.4462   -2968338.8            0   -2879279.5    51559.345 
    5050    798.11418   -2968413.5            0   -2879279.6    51539.243 
    5100    798.08364   -2968410.2            0   -2879279.8    51534.487 
    5150    796.97086   -2968284.4            0   -2879278.2    51569.193 
    5200    797.31582   -2968323.5            0   -2879278.8    51573.268 
    5250    798.03259   -2968404.3            0   -2879279.5    51545.528 
    5300    796.98588   -2968285.9            0   -2879278.1    51585.169 
    5350    797.39781   -2968332.2            0   -2879278.3    51564.368 
    5400    798.29741   -2968433.6            0   -2879279.2     51535.36 
    5450    798.01409   -2968401.6            0   -2879278.9    51530.315 
    5500    797.03546   -2968290.8            0   -2879277.3    51578.606 
    5550    797.81574     -2968379            0   -2879278.4    51552.108 
    5600    798.85837   -2968496.6            0   -2879279.6    51503.689 
    5650    797.88926   -2968387.5            0   -2879278.7    51551.476 
    5700    797.73037   -2968368.7            0   -2879277.6    51555.635 
    5750    797.78748   -2968375.9            0   -2879278.5    51559.681 
    5800    798.02583   -2968401.8            0   -2879277.8    51539.005 
    5850    797.49766   -2968342.4            0   -2879277.4    51560.379 
    5900    798.23502   -2968425.3            0   -2879277.9    51538.609 
    5950    797.58965   -2968352.5            0   -2879277.2    51564.709 
    6000    798.28747   -2968431.3            0     -2879278    51527.367 
    6050    798.05007   -2968404.8            0   -2879278.1    51530.369 
    6100    797.49824   -2968342.2            0   -2879277.1    51545.402 
    6150    797.71849   -2968367.7            0     -2879278    51557.193 
    6200    798.12955   -2968412.9            0   -2879277.3     51548.08 
    6250    798.16838   -2968417.7            0   -2879277.8    51538.279 
    6300    798.01714   -2968400.8            0   -2879277.7    51537.162 
    6350    796.63857   -2968246.5            0   -2879277.4    51600.294 
    6400    798.68404   -2968475.6            0   -2879278.1    51518.298 
    6450    798.05213     -2968404            0   -2879277.1    51534.469 
    6500    797.06915   -2968293.1            0   -2879275.9    51588.587 
    6550    798.01406   -2968399.4            0   -2879276.7    51547.195 
    6600    797.20267   -2968308.3            0   -2879276.2      51576.2 
    6650    797.81211   -2968377.3            0   -2879277.1    51543.163 
    6700    797.73193   -2968367.4            0   -2879276.2    51543.929 
    6750    797.90784   -2968386.7            0   -2879275.9    51542.112 
    6800    797.94596   -2968390.8            0   -2879275.7    51541.242 
    6850    796.75787   -2968257.6            0   -2879275.2    51597.719 
    6900    797.77843   -2968371.7            0   -2879275.3    51546.015 
    6950    798.55452   -2968458.9            0   -2879275.8    51525.279 
    7000     797.7153   -2968364.6            0   -2879275.3    51549.176 
    7050    797.92123     -2968387            0   -2879274.7    51555.487 
    7100    798.20784   -2968420.2            0   -2879275.8    51528.249 
    7150    797.22185   -2968308.6            0   -2879274.3     51572.92 
    7200    797.93896   -2968389.2            0   -2879274.9    51532.897 
    7250    797.70998   -2968363.3            0   -2879274.6    51551.104 
    7300    798.86377   -2968492.8            0   -2879275.2    51504.163 
    7350    798.32144   -2968431.1            0     -2879274    51532.027 
    7400    797.82199   -2968374.8            0   -2879273.5    51546.412 
    7450    797.81292   -2968374.2            0   -2879273.9    51541.632 
    7500    797.61107     -2968351            0   -2879273.3     51548.99 
    7550    798.09017   -2968404.9            0   -2879273.7    51541.863 
    7600    797.78009   -2968369.9            0   -2879273.4    51546.631 
    7650    798.44103   -2968444.7            0   -2879274.3    51521.666 
    7700    797.32907   -2968319.7            0   -2879273.5    51559.537 
    7750    798.81369   -2968485.8            0   -2879273.8    51494.835 
    7800     798.6225   -2968464.8            0   -2879274.1    51523.905 
    7850     796.9255   -2968273.9            0   -2879272.8      51581.1 
    7900    797.57331   -2968346.9            0   -2879273.4    51560.959 
    7950    797.91839   -2968384.8            0   -2879272.7    51547.654 
    8000    797.44178   -2968331.5            0   -2879272.7    51564.236 
    8050    798.48008   -2968448.3            0   -2879273.5     51520.07 
    8100    796.74074   -2968252.4            0   -2879271.9    51597.279 
    8150    798.14106   -2968409.3            0   -2879272.4    51548.208 
    8200    797.09464   -2968292.3            0   -2879272.3    51582.529 
    8250     797.0371   -2968285.8            0   -2879272.2    51594.408 
    8300    797.84274   -2968375.8            0   -2879272.3    51551.387 
    8350    797.84758   -2968376.3            0   -2879272.1    51548.917 
    8400     798.3951   -2968436.6            0   -2879271.4    51525.525 
    8450    798.09079   -2968402.4            0   -2879271.1    51538.663 
    8500    798.05242   -2968398.8            0   -2879271.8     51540.78 
    8550    798.00019   -2968392.3            0   -2879271.1    51550.697 
    8600    797.80289     -2968370            0   -2879270.9     51549.82 
    8650    797.81542   -2968371.6            0   -2879271.1    51553.743 
    8700    797.87415   -2968378.5            0   -2879271.4    51546.509 
    8750    798.00868   -2968393.2            0   -2879271.1    51542.856 
    8800     797.8935   -2968379.7            0   -2879270.4    51545.425 
    8850    798.48198   -2968445.3            0   -2879270.3    51525.861 
    8900    797.98128     -2968389            0     -2879270    51538.201 
    8950    797.93131   -2968383.2            0   -2879269.7    51550.234 
    9000    797.03409   -2968282.2            0   -2879268.9    51585.999 
    9050     798.6943   -2968469.1            0   -2879270.4     51520.43 
    9100    797.44894   -2968328.7            0   -2879269.1    51573.899 
    9150    798.42626   -2968438.6            0   -2879269.8        51520 
    9200    798.23046     -2968416            0   -2879269.1    51545.551 
    9250    798.50183   -2968446.6            0   -2879269.4    51516.159 
    9300    796.86383   -2968262.7            0   -2879268.4    51592.405 
    9350    797.22727   -2968303.1            0   -2879268.3    51580.722 
    9400    797.71026   -2968357.8            0     -2879269    51547.774 
    9450    797.90251   -2968378.5            0   -2879268.3    51547.607 
    9500    798.57891   -2968455.4            0   -2879269.6    51523.125 
    9550    798.61571   -2968458.3            0   -2879268.4    51517.727 
    9600    798.47806   -2968443.5            0     -2879269    51521.422 
    9650     797.3504   -2968316.3            0   -2879267.7    51572.909 
    9700    798.05369   -2968395.5            0   -2879268.3    51543.261 
    9750    797.47932   -2968330.3            0   -2879267.3    51559.181 
    9800    797.72604   -2968358.4            0   -2879267.8     51554.84 
    9850    798.07297   -2968397.3            0     -2879268    51543.187 
    9900     797.3478   -2968315.2            0   -2879266.9    51577.133 
    9950    798.16498   -2968407.3            0   -2879267.7    51537.697 
   10000    796.86844   -2968260.9            0   -2879266.1    51598.404 
Loop time of 74.9131 on 64 procs for 10000 steps with 864000 atoms

Performance: 57.667 ns/day, 0.416 hours/ns, 133.488 timesteps/s
98.7% CPU use with 64 MPI tasks x 1 OpenMP threads

MPI task timing breakdown:
Section |  min time  |  avg time  |  max time  |%varavg| %total
---------------------------------------------------------------
Pair    | 56.132     | 56.871     | 57.737     |   4.0 | 75.92
Neigh   | 6.076      | 6.217      | 6.4338     |   3.2 |  8.30
Comm    | 5.5539     | 6.4235     | 7.2906     |  16.0 |  8.57
Output  | 0.024683   | 0.033415   | 0.049602   |   3.1 |  0.04
Modify  | 3.0413     | 3.5876     | 3.9866     |   9.6 |  4.79
Other   |            | 1.781      |            |       |  2.38

Nlocal:          13500 ave       13617 max       13415 min
Histogram: 4 5 9 9 13 16 3 4 0 1
Nghost:        11825.4 ave       11910 max       11708 min
Histogram: 1 0 3 4 16 13 9 9 5 4
Neighs:         509623 ave      514662 max      506117 min
Histogram: 5 5 7 13 11 13 6 3 0 1

Total # of neighbors = 32615858
Ave neighs/atom = 37.749836
Neighbor list builds = 1638
Dangerous builds = 18
Total wall time: 0:01:14
Intel(R) VTune(TM) Profiler 2022.2.0 collection completed successfully. Use the "aps --report /home/ubuntu/lammps/bench/aps_result_20220703" command to generate textual and HTML reports for the profiling session.
