LAMMPS (7 Jan 2022)
  using 1 OpenMP thread(s) per MPI task
Lattice spacing in x,y,z = 3.615 3.615 3.615
Created orthogonal box = (0 0 0) to (289.2 289.2 289.2)
  1 by 2 by 2 MPI processor grid
Created 2048000 atoms
  using lattice units in orthogonal box = (0 0 0) to (289.2 289.2 289.2)
  create_atoms CPU = 0.097 seconds
Reading eam potential file Cu_u3.eam with DATE: 2007-06-11
----------------------------------------------------------
Using INTEL Package without Coprocessor.
Compiler: Intel Classic C++ 20.21.5 / Intel(R) C++ g++ 9.3 mode
SIMD compiler directives: Enabled
Precision: double
----------------------------------------------------------
Neighbor list info ...
  update every 1 steps, delay 5 steps, check yes
  max neighbors/atom: 2000, page size: 100000
  master list distance cutoff = 5.95
  ghost atom cutoff = 5.95
  binsize = 2.975, bins = 98 98 98
  1 neighbor lists, perpetual/occasional/extra = 1 0 0
  (1) pair eam/intel, perpetual
      attributes: half, newton on, intel
      pair build: half/bin/newton/intel
      stencil: half/bin/3d
      bin: intel
Setting up Verlet run ...
  Unit style    : metal
  Current step  : 0
  Time step     : 0.005
Per MPI rank memory allocation (min/avg/max) = 4466 | 4466 | 4466 Mbytes
Step Temp E_pair E_mol TotEng Press 
       0         1600     -7249920            0   -6826360.6    18704.149 
      50    780.81547   -7031660.9            0   -6824959.8    52291.364 
     100    798.21786   -7036295.3            0   -6824987.4    51479.467 
Loop time of 45.0163 on 4 procs for 100 steps with 2048000 atoms

Performance: 0.960 ns/day, 25.009 hours/ns, 2.221 timesteps/s
66.7% CPU use with 4 MPI tasks x 1 OpenMP threads

MPI task timing breakdown:
Section |  min time  |  avg time  |  max time  |%varavg| %total
---------------------------------------------------------------
Pair    | 26.434     | 30.903     | 35.359     |  79.7 | 68.65
Neigh   | 1.7937     | 2.6719     | 3.5903     |  53.7 |  5.94
Comm    | 3.9469     | 9.5914     | 15.171     | 178.9 | 21.31
Output  | 0.002988   | 0.01496    | 0.026908   |   9.8 |  0.03
Modify  | 0.60056    | 0.94032    | 1.3645     |  35.4 |  2.09
Other   |            | 0.8945     |            |       |  1.99

Nlocal:         512000 ave      512257 max      511721 min
Histogram: 1 0 0 0 1 1 0 0 0 1
Nghost:         120002 ave      120281 max      119739 min
Histogram: 1 0 0 0 1 1 0 0 0 1
Neighs:    1.93156e+07 ave 1.93357e+07 max 1.93036e+07 min
Histogram: 1 1 0 1 0 0 0 0 0 1

Total # of neighbors = 77262570
Ave neighs/atom = 37.725864
Neighbor list builds = 15
Dangerous builds = 0
Total wall time: 0:00:46
Intel(R) VTune(TM) Profiler 2022.2.0 collection completed successfully. Use the "aps --report /home/ubuntu/lammps/bench/aps_result_20220531" command to generate textual and HTML reports for the profiling session.
