LAMMPS (7 Jan 2022)
  using 1 OpenMP thread(s) per MPI task
New timer settings: style=full  mode=nosync  timeout=off
Lattice spacing in x,y,z = 3.615 3.615 3.615
Created orthogonal box = (0 0 0) to (216.9 216.9 216.9)
  4 by 4 by 4 MPI processor grid
Created 864000 atoms
  using lattice units in orthogonal box = (0 0 0) to (216.9 216.9 216.9)
  create_atoms CPU = 0.003 seconds
Reading eam potential file Cu_u3.eam with DATE: 2007-06-11
----------------------------------------------------------
Using INTEL Package without Coprocessor.
Compiler: Intel Classic C++ 20.21.5 / Intel(R) C++ g++ 9.3 mode
SIMD compiler directives: Enabled
Precision: mixed
----------------------------------------------------------
Neighbor list info ...
  update every 1 steps, delay 5 steps, check yes
  max neighbors/atom: 2000, page size: 100000
  master list distance cutoff = 5.95
  ghost atom cutoff = 5.95
  binsize = 2.975, bins = 73 73 73
  1 neighbor lists, perpetual/occasional/extra = 1 0 0
  (1) pair eam/intel, perpetual
      attributes: half, newton on, intel
      pair build: half/bin/newton/intel
      stencil: half/bin/3d
      bin: intel
Setting up Verlet run ...
  Unit style    : metal
  Current step  : 0
  Time step     : 0.005
Per MPI rank memory allocation (min/avg/max) = 121.2 | 121.2 | 121.2 Mbytes
Step Temp E_pair E_mol TotEng Press 
       0         1600   -3058559.2            0   -2879870.1    18704.286 
      50    780.51282   -2966447.5            0   -2879279.4    52309.317 
     100    798.57091   -2968476.9            0     -2879292    51460.464 
Loop time of 0.823171 on 64 procs for 100 steps with 864000 atoms

Performance: 52.480 ns/day, 0.457 hours/ns, 121.481 timesteps/s
98.5% CPU use with 64 MPI tasks x 1 OpenMP threads

MPI task timing breakdown:
Section |  min time  |  avg time  |  max time  |%varavg|  %CPU | %total
-----------------------------------------------------------------------
Pair    | 0.62893    | 0.63466    | 0.64334    |   0.4 |  98.6 | 77.10
Neigh   | 0.063526   | 0.064457   | 0.06711    |   0.3 |  98.9 |  7.83
Comm    | 0.057464   | 0.069121   | 0.078371   |   1.6 |  97.5 |  8.40
Output  | 0.00022884 | 0.00038048 | 0.00062058 |   0.0 | 100.0 |  0.05
Modify  | 0.030746   | 0.035351   | 0.039672   |   1.0 |  98.2 |  4.29
Other   |            | 0.0192     |            |       |       |  2.33

Nlocal:          13500 ave       13649 max       13352 min
Histogram: 2 1 5 10 17 10 11 4 2 2
Nghost:        11825.2 ave       11974 max       11677 min
Histogram: 2 2 4 11 10 17 10 5 1 2
Neighs:         509307 ave      516357 max      503204 min
Histogram: 2 1 7 15 15 9 8 4 2 1

Total # of neighbors = 32595627
Ave neighs/atom = 37.72642
Neighbor list builds = 15
Dangerous builds = 0
Total wall time: 0:00:00
Intel(R) VTune(TM) Profiler 2022.2.0 collection completed successfully. Use the "aps --report /home/ubuntu/lammps/bench/aps_result_20220519" command to generate textual and HTML reports for the profiling session.
