LAMMPS (7 Jan 2022)
  using 1 OpenMP thread(s) per MPI task
Lattice spacing in x,y,z = 3.615 3.615 3.615
Created orthogonal box = (0 0 0) to (216.9 216.9 216.9)
  2 by 2 by 2 MPI processor grid
Created 864000 atoms
  using lattice units in orthogonal box = (0 0 0) to (216.9 216.9 216.9)
  create_atoms CPU = 0.025 seconds
Reading eam potential file Cu_u3.eam with DATE: 2007-06-11
----------------------------------------------------------
Using INTEL Package without Coprocessor.
Compiler: Intel Classic C++ 20.21.5 / Intel(R) C++ g++ 9.3 mode
SIMD compiler directives: Enabled
Precision: mixed
----------------------------------------------------------
Neighbor list info ...
  update every 1 steps, delay 5 steps, check yes
  max neighbors/atom: 2000, page size: 100000
  master list distance cutoff = 5.95
  ghost atom cutoff = 5.95
  binsize = 2.975, bins = 73 73 73
  1 neighbor lists, perpetual/occasional/extra = 1 0 0
  (1) pair eam/intel, perpetual
      attributes: half, newton on, intel
      pair build: half/bin/newton/intel
      stencil: half/bin/3d
      bin: intel
Setting up Verlet run ...
  Unit style    : metal
  Current step  : 0
  Time step     : 0.005
Per MPI rank memory allocation (min/avg/max) = 946.3 | 946.3 | 946.3 Mbytes
Step Temp E_pair E_mol TotEng Press 
       0         1600   -3058559.2            0   -2879870.1    18704.286 
      50    780.51283   -2966447.5            0   -2879279.4    52309.312 
     100    798.57095   -2968476.9            0     -2879292    51460.462 
     150    796.91972   -2968292.3            0   -2879291.8    51559.454 
     200     797.2239   -2968326.6            0   -2879292.2    51553.429 
     250    797.26178   -2968330.8            0   -2879292.1    51553.204 
     300    797.92856   -2968405.3            0   -2879292.1    51531.614 
     350    797.55203     -2968363            0   -2879291.9    51545.508 
     400    798.29709   -2968447.6            0   -2879293.2    51519.172 
     450     798.2402   -2968440.9            0   -2879292.9    51516.941 
     500    797.75686   -2968385.4            0   -2879291.4     51542.94 
     550    796.85169   -2968284.1            0   -2879291.2    51587.747 
     600    798.25494   -2968441.3            0   -2879291.6    51515.197 
     650    797.35642   -2968339.6            0   -2879290.3    51552.171 
     700    797.41235   -2968346.2            0   -2879290.7    51554.265 
     750    797.52429   -2968359.1            0     -2879291    51546.933 
     800    798.06435   -2968419.4            0   -2879291.1    51533.249 
     850    797.30499   -2968334.1            0   -2879290.5    51570.645 
     900    797.47167   -2968353.6            0   -2879291.4    51541.261 
     950    798.04306   -2968416.7            0   -2879290.8    51527.231 
    1000    797.35037   -2968338.3            0   -2879289.7    51561.777 
    1050    797.89497     -2968399            0   -2879289.6    51535.515 
    1100    797.09342   -2968308.5            0   -2879288.6    51573.206 
    1150    797.57149     -2968363            0   -2879289.7    51557.849 
    1200    796.61147   -2968255.1            0   -2879289.1    51586.138 
    1250    797.69703   -2968376.1            0   -2879288.8    51546.555 
    1300     796.8581   -2968282.2            0   -2879288.6    51585.394 
    1350    798.45373   -2968461.5            0   -2879289.6    51518.635 
    1400    797.79895   -2968388.7            0     -2879290    51547.107 
    1450     797.8349     -2968391            0   -2879288.3     51549.57 
    1500    797.08154   -2968305.9            0   -2879287.4    51584.116 
    1550    798.10963   -2968422.6            0   -2879289.2    51528.532 
    1600     798.4632   -2968461.3            0   -2879288.4    51511.933 
    1650    797.95866   -2968404.4            0   -2879287.8    51539.453 
    1700    797.47196     -2968350            0   -2879287.8     51552.38 
    1750    797.96739   -2968405.4            0   -2879287.9    51542.798 
    1800    797.36103   -2968336.5            0   -2879286.7    51557.103 
    1850    797.31357   -2968330.6            0   -2879286.1    51565.104 
    1900    798.94593   -2968514.5            0   -2879287.7    51504.828 
    1950    798.05001     -2968414            0   -2879287.3    51534.429 
    2000    798.03822   -2968412.5            0   -2879287.1    51539.283 
    2050    797.24643   -2968323.3            0   -2879286.3    51568.756 
    2100    798.08978   -2968417.2            0   -2879286.1      51530.2 
    2150    797.62224   -2968365.2            0   -2879286.2    51557.494 
    2200    798.06535   -2968414.8            0   -2879286.4    51533.061 
    2250    798.14478   -2968423.5            0   -2879286.2    51524.146 
    2300    797.81717   -2968387.3            0   -2879286.5    51539.904 
    2350    797.57462   -2968359.3            0   -2879285.7    51554.513 
    2400    798.11419   -2968419.5            0   -2879285.6    51535.415 
    2450    798.20596   -2968429.9            0   -2879285.8    51529.818 
    2500    798.05925   -2968412.9            0   -2879285.2    51531.906 
    2550    798.37004   -2968448.3            0   -2879285.8     51517.95 
    2600    798.21747   -2968430.8            0   -2879285.3    51530.383 
    2650    797.96974   -2968402.5            0   -2879284.8    51543.845 
    2700    797.77344   -2968380.4            0   -2879284.5     51550.31 
    2750    798.01203   -2968407.8            0   -2879285.3    51532.618 
    2800    797.68979   -2968371.6            0   -2879285.1    51552.123 
    2850     799.0396   -2968522.7            0   -2879285.4    51499.669 
    2900    797.77321   -2968379.9            0   -2879284.1    51540.598 
    2950    797.96765   -2968401.8            0   -2879284.2    51534.292 
    3000    798.38749   -2968448.7            0   -2879284.3    51525.318 
    3050    798.28689   -2968437.3            0   -2879284.2     51537.93 
    3100    796.44853   -2968230.6            0   -2879282.7    51594.497 
    3150    798.14527   -2968420.6            0   -2879283.2    51520.202 
    3200    797.96792     -2968400            0   -2879282.4     51542.92 
    3250    798.04448   -2968408.5            0   -2879282.4    51535.969 
    3300    797.58553   -2968356.6            0   -2879281.7    51552.391 
    3350    798.35844   -2968443.8            0   -2879282.6     51519.79 
    3400    797.81675   -2968382.9            0   -2879282.3    51547.886 
    3450    797.71539   -2968371.4            0   -2879282.1    51550.984 
    3500    797.06841   -2968298.7            0   -2879281.6     51577.85 
    3550    798.05571   -2968408.5            0   -2879281.2    51538.061 
    3600    796.95958   -2968285.2            0   -2879280.3    51586.193 
    3650    797.63982   -2968362.5            0   -2879281.6    51544.086 
    3700    797.75671     -2968375            0     -2879281    51537.771 
    3750    797.49139   -2968344.5            0   -2879280.1    51549.696 
    3800    798.05827   -2968408.9            0   -2879281.3    51533.417 
    3850    797.76665   -2968376.1            0     -2879281    51542.921 
    3900     797.2362   -2968315.8            0     -2879280    51569.329 
    3950    797.78292     -2968377            0   -2879280.1    51547.149 
    4000    798.50823   -2968459.4            0   -2879281.5    51518.364 
    4050    797.40975   -2968335.4            0   -2879280.2    51565.255 
    4100    796.75256   -2968261.3            0   -2879279.5    51587.299 
    4150    798.80454   -2968491.3            0   -2879280.3    51509.039 
    4200    797.98777     -2968399            0   -2879279.2    51536.397 
    4250    797.57726   -2968353.4            0   -2879279.4    51558.903 
    4300    797.65944   -2968362.5            0   -2879279.4    51550.304 
    4350    797.71499     -2968368            0   -2879278.7    51561.608 
    4400    797.20764   -2968310.8            0   -2879278.2    51576.692 
    4450    798.46388   -2968452.3            0   -2879279.3    51517.272 
    4500    797.61847   -2968357.3            0   -2879278.8    51555.882 
    4550    798.06294   -2968406.6            0   -2879278.5    51532.767 
    4600     797.6436   -2968359.8            0   -2879278.4    51553.447 
    4650     797.4045     -2968332            0   -2879277.4    51563.266 
    4700    798.30119   -2968432.8            0   -2879278.1    51526.459 
    4750    797.74985   -2968370.3            0   -2879277.1    51544.692 
    4800    797.72861     -2968369            0   -2879278.1    51545.714 
    4850    797.68534   -2968363.1            0   -2879277.1    51552.094 
    4900    798.47269   -2968450.9            0   -2879276.9     51517.15 
    4950    797.80191   -2968375.9            0   -2879276.9    51550.055 
    5000    798.38004   -2968440.8            0   -2879277.3    51519.853 
    5050    798.19611   -2968418.8            0   -2879275.7    51533.118 
    5100    798.52023   -2968456.3            0   -2879277.1     51516.55 
    5150    798.35874   -2968438.3            0     -2879277    51530.835 
    5200    797.96409   -2968392.5            0   -2879275.4     51540.23 
    5250    797.34456   -2968322.5            0   -2879274.5     51569.92 
    5300    798.06473   -2968402.8            0   -2879274.5    51547.014 
    5350    798.02749   -2968400.3            0   -2879276.1    51529.763 
    5400    797.49707   -2968338.5            0   -2879273.5    51561.074 
    5450    798.28907     -2968428            0   -2879274.5    51519.995 
    5500    798.47145   -2968448.6            0   -2879274.8    51520.891 
    5550    796.70939   -2968250.2            0   -2879273.2    51590.922 
    5600    797.95723   -2968390.8            0   -2879274.4     51540.15 
    5650    797.74395   -2968366.3            0   -2879273.7    51551.868 
    5700    797.64609   -2968355.6            0   -2879273.9    51550.402 
    5750    797.45789   -2968333.6            0     -2879273    51563.178 
    5800    797.80058   -2968371.1            0   -2879272.2    51545.363 
    5850    797.46258   -2968333.6            0   -2879272.5    51558.725 
    5900    797.59602     -2968349            0     -2879273     51557.56 
    5950    797.30437   -2968315.6            0   -2879272.2    51577.321 
    6000     798.0023   -2968393.9            0   -2879272.5    51540.929 
    6050    797.75994   -2968366.8            0   -2879272.5    51545.211 
    6100    797.41738   -2968327.8            0   -2879271.7    51568.444 
    6150    797.93574   -2968386.1            0   -2879272.1    51548.744 
    6200    798.44552   -2968443.4            0   -2879272.5    51532.629 
    6250     797.5617   -2968343.4            0   -2879271.2    51563.991 
    6300    797.84289     -2968375            0   -2879271.4    51543.543 
    6350    798.84726   -2968487.9            0   -2879272.1    51504.767 
    6400     798.4851     -2968447            0   -2879271.7    51528.175 
    6450     798.0506   -2968397.9            0   -2879271.1    51543.152 
    6500    796.79269   -2968256.8            0   -2879270.5    51594.884 
    6550    798.51681   -2968450.5            0   -2879271.6    51510.467 
    6600     797.9999   -2968392.3            0   -2879271.2    51546.045 
    6650    797.15333     -2968297            0   -2879270.4    51580.926 
    6700    798.49793   -2968448.7            0   -2879271.9    51530.934 
    6750    797.70914   -2968359.1            0   -2879270.5    51559.736 
    6800    797.86105   -2968376.3            0   -2879270.7    51563.255 
    6850    798.47573   -2968445.1            0   -2879270.8    51520.328 
    6900    797.18694   -2968300.1            0   -2879269.7    51573.676 
    6950    798.21206   -2968414.8            0     -2879270    51537.823 
    7000    798.20852   -2968415.4            0     -2879271    51533.026 
    7050    798.52365   -2968450.5            0   -2879270.9    51526.706 
    7100    798.65459   -2968465.6            0   -2879271.4    51516.209 
    7150    798.54281   -2968452.3            0   -2879270.5    51521.274 
    7200    798.48213     -2968445            0     -2879270    51531.352 
    7250     798.4528     -2968442            0   -2879270.3    51525.622 
    7300    797.71454   -2968357.9            0   -2879268.7    51556.983 
    7350    797.42341   -2968325.3            0   -2879268.6    51570.226 
    7400     797.9278   -2968381.1            0     -2879268    51548.884 
    7450    797.26271   -2968306.5            0   -2879267.7    51581.504 
    7500    797.88248   -2968376.5            0   -2879268.4     51552.66 
    7550    797.62767   -2968347.3            0   -2879267.7     51547.97 
    7600    797.79984   -2968366.6            0   -2879267.8    51554.964 
    7650    797.78699   -2968365.1            0   -2879267.8    51544.251 
    7700    798.53113   -2968448.7            0   -2879268.2    51524.677 
    7750    797.93286   -2968381.3            0   -2879267.7    51549.997 
    7800    797.87568   -2968373.9            0   -2879266.7    51552.195 
    7850    797.51883   -2968334.6            0   -2879267.2    51562.706 
    7900    796.87588   -2968261.3            0   -2879265.7    51588.636 
    7950    797.71552   -2968356.2            0   -2879266.8    51562.329 
    8000    797.40372   -2968320.8            0   -2879266.2    51570.226 
    8050    798.54146   -2968448.5            0   -2879266.8    51522.927 
    8100    798.34475     -2968426            0   -2879266.3    51533.385 
    8150    797.54914   -2968336.1            0   -2879265.3    51565.718 
    8200    797.84599   -2968369.2            0   -2879265.2    51559.935 
    8250    797.77925     -2968362            0   -2879265.5    51556.969 
    8300    798.08173   -2968395.4            0   -2879265.1    51543.895 
    8350    798.95391   -2968493.7            0   -2879266.1    51499.237 
    8400    797.81462   -2968365.1            0   -2879264.7    51556.848 
    8450    798.25535     -2968415            0   -2879265.3    51532.994 
    8500    797.30387   -2968307.5            0   -2879264.1    51577.043 
    8550    798.61408   -2968454.5            0   -2879264.8    51516.224 
    8600    798.41986   -2968432.9            0   -2879264.9    51534.206 
    8650    798.70843   -2968465.4            0   -2879265.1    51518.428 
    8700    798.39194   -2968429.2            0   -2879264.3    51530.285 
    8750    797.99685   -2968385.6            0   -2879264.8    51552.523 
    8800    798.47715   -2968438.9            0   -2879264.4    51537.465 
    8850    798.26034   -2968414.4            0   -2879264.2    51532.319 
    8900    797.55546     -2968335            0   -2879263.5    51565.577 
    8950    797.95569   -2968379.8            0   -2879263.6    51545.573 
    9000     798.6485   -2968457.5            0   -2879263.9    51517.613 
    9050     798.8283   -2968477.2            0   -2879263.6    51513.438 
    9100    798.23255   -2968410.4            0   -2879263.3    51527.275 
    9150    797.68104   -2968348.3            0   -2879262.8    51557.834 
    9200    798.89134   -2968483.9            0   -2879263.2    51518.442 
    9250    798.04701     -2968389            0   -2879262.6    51544.544 
    9300     797.4126     -2968317            0   -2879261.4    51581.527 
    9350    797.84126   -2968365.7            0   -2879262.3    51556.271 
    9400    798.00656     -2968384            0   -2879262.1    51555.622 
    9450    798.52767     -2968443            0     -2879263    51525.859 
    9500    797.51032     -2968328            0   -2879261.5    51560.484 
    9550    798.58821     -2968449            0   -2879262.1    51526.849 
    9600    797.24006   -2968296.9            0   -2879260.6    51575.466 
    9650    797.88615   -2968369.4            0     -2879261    51557.908 
    9700    796.81614   -2968248.8            0   -2879259.9    51599.945 
    9750    798.29192   -2968415.1            0   -2879261.4    51540.171 
    9800    797.56325   -2968332.7            0   -2879260.3     51573.29 
    9850    798.10455   -2968393.6            0   -2879260.8    51546.199 
    9900    798.11359   -2968394.8            0     -2879261    51543.484 
    9950    797.95843   -2968376.7            0   -2879260.2    51548.933 
   10000    797.51564   -2968327.4            0   -2879260.4    51569.679 
Loop time of 443.361 on 8 procs for 10000 steps with 864000 atoms

Performance: 9.744 ns/day, 2.463 hours/ns, 22.555 timesteps/s
99.7% CPU use with 8 MPI tasks x 1 OpenMP threads

MPI task timing breakdown:
Section |  min time  |  avg time  |  max time  |%varavg| %total
---------------------------------------------------------------
Pair    | 364.46     | 365.46     | 366.77     |   4.0 | 82.43
Neigh   | 39.43      | 39.769     | 40.625     |   6.3 |  8.97
Comm    | 19.482     | 20.394     | 21.4       |  14.7 |  4.60
Output  | 0.060378   | 0.065407   | 0.067998   |   0.9 |  0.01
Modify  | 12.211     | 12.644     | 13.194     |   8.9 |  2.85
Other   |            | 5.026      |            |       |  1.13

Nlocal:         108000 ave      108060 max      107909 min
Histogram: 1 1 0 1 0 1 0 0 2 2
Nghost:        42378.6 ave       42468 max       42320 min
Histogram: 2 2 0 0 1 0 1 0 1 1
Neighs:    4.07696e+06 ave 4.08006e+06 max 4.07237e+06 min
Histogram: 1 0 1 0 0 2 1 0 1 2

Total # of neighbors = 32615708
Ave neighs/atom = 37.749662
Neighbor list builds = 1632
Dangerous builds = 12
Total wall time: 0:07:23
Intel(R) VTune(TM) Profiler 2022.2.0 collection completed successfully. Use the "aps --report /home/ubuntu/lammps/bench/aps_result_20220703" command to generate textual and HTML reports for the profiling session.
