LAMMPS (7 Jan 2022)
  using 1 OpenMP thread(s) per MPI task
Lattice spacing in x,y,z = 3.615 3.615 3.615
Created orthogonal box = (0 0 0) to (72.3 72.3 72.3)
  1 by 1 by 2 MPI processor grid
Created 32000 atoms
  using lattice units in orthogonal box = (0 0 0) to (72.3 72.3 72.3)
  create_atoms CPU = 0.006 seconds
Reading eam potential file Cu_u3.eam with DATE: 2007-06-11
----------------------------------------------------------
Using INTEL Package without Coprocessor.
Compiler: Intel Classic C++ 20.21.5 / Intel(R) C++ g++ 9.3 mode
SIMD compiler directives: Enabled
Precision: mixed
----------------------------------------------------------
Neighbor list info ...
  update every 1 steps, delay 5 steps, check yes
  max neighbors/atom: 2000, page size: 100000
  master list distance cutoff = 5.95
  ghost atom cutoff = 5.95
  binsize = 2.975, bins = 25 25 25
  1 neighbor lists, perpetual/occasional/extra = 1 0 0
  (1) pair eam/intel, perpetual
      attributes: half, newton on, intel
      pair build: half/bin/newton/intel
      stencil: half/bin/3d
      bin: intel
Setting up Verlet run ...
  Unit style    : metal
  Current step  : 0
  Time step     : 0.005
Per MPI rank memory allocation (min/avg/max) = 143.1 | 143.1 | 143.1 Mbytes
Step Temp E_pair E_mol TotEng Press 
       0         1600   -113279.97            0   -106662.06    18703.495 
      50    781.69067   -109873.35            0   -106640.13    52273.083 
     100    801.83213    -109957.3            0   -106640.76    51322.807 
     150    794.67653   -109927.53            0    -106640.6    51669.278 
     200    795.75181   -109932.04            0   -106640.66    51628.943 
     250    797.58366   -109939.57            0   -106640.61    51564.167 
     300     793.2331    -109921.5            0   -106640.53    51741.327 
     350    799.19347    -109946.3            0   -106640.68     51461.89 
     400    797.16457   -109937.83            0    -106640.6    51585.773 
     450    794.86152   -109928.11            0    -106640.4    51651.471 
     500    796.78088   -109936.18            0   -106640.54    51565.353 
     550    796.68653   -109935.87            0   -106640.62    51580.943 
     600    799.54972   -109947.78            0   -106640.68     51434.33 
     650    800.85392   -109953.15            0   -106640.67    51407.433 
     700    791.73917   -109915.12            0   -106640.34    51729.611 
     750    801.42765   -109955.59            0   -106640.73    51340.881 
     800     797.9164   -109940.75            0   -106640.41    51527.599 
     850    803.69814   -109964.89            0   -106640.64    51322.541 
     900    805.39989      -109972            0   -106640.71     51275.45 
     950    799.22434   -109946.19            0   -106640.45    51490.027 
    1000    796.31909   -109933.93            0    -106640.2    51607.014 
    1050    793.64718   -109922.94            0   -106640.26    51683.878 
    1100    800.64073   -109951.87            0   -106640.26    51463.085 
    1150    795.83068   -109932.02            0   -106640.31     51539.21 
    1200    798.34034   -109942.56            0   -106640.47    51469.126 
    1250    800.59451   -109951.77            0   -106640.35    51436.231 
    1300     796.7681   -109935.82            0   -106640.23    51587.296 
    1350    797.99127   -109941.06            0   -106640.41    51532.403 
    1400    801.48908    -109955.5            0   -106640.39    51412.172 
    1450    797.26298   -109937.76            0   -106640.12      51542.8 
    1500    795.44572   -109930.22            0    -106640.1    51640.455 
    1550    799.59647   -109947.57            0   -106640.28    51459.813 
    1600    793.60137   -109922.62            0   -106640.13    51731.431 
    1650    799.50577   -109947.23            0   -106640.32    51431.727 
    1700    800.17049   -109949.92            0   -106640.26    51425.885 
    1750    798.88775   -109944.62            0   -106640.27    51524.041 
    1800    798.81635   -109944.29            0   -106640.23    51487.347 
    1850     796.7826   -109935.78            0   -106640.13    51511.257 
    1900    800.47719   -109951.16            0   -106640.23    51414.422 
    1950    802.89405   -109961.18            0   -106640.26    51368.292 
    2000    794.94757   -109928.21            0   -106640.15    51656.332 
    2050    794.86838   -109927.71            0   -106639.98    51665.218 
    2100    800.32507   -109950.52            0   -106640.22    51472.643 
    2150    797.95924   -109940.65            0   -106640.14    51553.491 
    2200    805.29843   -109971.19            0   -106640.32    51247.605 
    2250    800.66754   -109951.95            0   -106640.23     51455.93 
    2300    797.58792   -109939.11            0   -106640.13    51474.845 
    2350    793.29245   -109921.21            0      -106640    51716.946 
    2400    798.09891   -109941.27            0   -106640.17    51527.098 
    2450    795.96717   -109932.36            0   -106640.09    51620.757 
    2500    792.63905   -109918.35            0   -106639.84    51733.202 
    2550    795.23551   -109929.28            0   -106640.03    51648.604 
    2600    796.26338   -109933.48            0   -106639.98    51628.628 
    2650    793.34749   -109921.33            0   -106639.89    51680.951 
    2700    795.75207    -109931.3            0   -106639.91    51610.593 
    2750    797.61099   -109939.07            0      -106640    51565.484 
    2800    799.18545    -109945.6            0   -106640.01    51533.845 
    2850    803.25607   -109962.65            0   -106640.22    51327.304 
    2900    792.05595   -109915.99            0   -106639.89    51784.825 
    2950    797.68209   -109939.43            0   -106640.06    51547.757 
    3000    798.77055   -109943.94            0   -106640.07    51517.329 
    3050    799.41783   -109946.67            0   -106640.12    51491.601 
    3100    791.71606   -109914.54            0   -106639.84    51773.674 
    3150    800.55994   -109951.33            0   -106640.06    51407.187 
    3200    797.80159   -109939.71            0   -106639.85    51556.307 
    3250    800.04596   -109949.13            0   -106639.99    51465.652 
    3300    793.23993   -109920.82            0   -106639.82    51778.231 
    3350    796.07535   -109932.58            0   -106639.85    51625.257 
    3400    803.72716   -109964.48            0   -106640.11    51324.504 
    3450    797.93798   -109940.32            0   -106639.89    51536.678 
    3500    796.51075   -109934.31            0   -106639.78    51645.361 
    3550    799.70118   -109947.69            0   -106639.97     51514.16 
    3600    801.35603   -109954.57            0   -106640.01    51389.981 
    3650     797.9629   -109940.44            0   -106639.91    51582.814 
    3700    794.99208   -109928.15            0    -106639.9    51643.615 
    3750     801.8358   -109956.47            0   -106639.92    51391.382 
    3800    799.49921   -109946.79            0    -106639.9    51496.391 
    3850    801.49461   -109955.16            0   -106640.02    51380.659 
    3900    797.78084   -109939.72            0   -106639.94    51568.756 
    3950    800.78206   -109952.09            0    -106639.9    51424.816 
    4000    800.42283   -109950.54            0   -106639.84    51438.048 
    4050     791.2453   -109912.27            0   -106639.53    51818.629 
    4100    801.50664   -109955.13            0   -106639.94     51431.43 
    4150    795.89722   -109931.62            0   -106639.64    51628.313 
    4200     792.5561   -109917.72            0   -106639.55    51763.119 
    4250    796.26721    -109933.2            0   -106639.69    51607.676 
    4300    797.52621   -109938.37            0   -106639.64    51610.768 
    4350      799.147   -109945.09            0   -106639.66    51521.505 
    4400    802.72491   -109960.02            0   -106639.79    51405.086 
    4450    798.27123   -109941.41            0    -106639.6    51555.674 
    4500      798.998   -109944.57            0   -106639.76    51500.167 
    4550    800.86227   -109952.43            0   -106639.91    51422.296 
    4600    795.68006   -109930.55            0   -106639.46    51685.605 
    4650    799.10176   -109944.94            0    -106639.7    51484.412 
    4700    799.79911   -109947.85            0   -106639.72    51462.068 
    4750    798.34569   -109941.72            0   -106639.61    51526.715 
    4800    796.52294   -109934.18            0   -106639.61    51613.724 
    4850    799.04982   -109944.82            0    -106639.8    51528.781 
    4900    795.26239   -109928.95            0   -106639.59    51667.196 
    4950    797.77469   -109939.45            0    -106639.7    51543.878 
    5000     792.3837   -109916.87            0   -106639.42    51797.313 
    5050    797.96274   -109940.18            0   -106639.65    51522.056 
    5100    800.97889   -109952.75            0   -106639.74    51405.998 
    5150    796.51948   -109934.26            0    -106639.7    51637.989 
    5200    796.96151   -109936.08            0   -106639.69    51572.428 
    5250    796.49673   -109934.17            0    -106639.7    51591.797 
    5300    800.61555   -109951.36            0   -106639.86     51416.71 
    5350    796.45954   -109934.03            0   -106639.71    51611.938 
    5400    798.26401   -109941.56            0   -106639.79    51512.223 
    5450    800.05728   -109949.06            0   -106639.86    51434.637 
    5500    797.88894   -109940.11            0   -106639.89     51521.96 
    5550    796.21171   -109933.09            0    -106639.8    51565.095 
    5600    794.30173   -109925.17            0   -106639.78    51681.679 
    5650    799.35385   -109946.04            0   -106639.76    51554.559 
    5700    795.42356   -109929.54            0   -106639.51    51646.004 
    5750    798.16363    -109941.1            0   -106639.74    51571.464 
    5800    794.15228   -109924.28            0   -106639.51     51742.16 
    5850    798.46352   -109942.29            0   -106639.69    51508.742 
    5900    796.83926    -109935.5            0   -106639.62     51612.97 
    5950    799.25332   -109945.48            0   -106639.61    51497.196 
    6000    798.91643   -109944.07            0    -106639.6    51495.624 
    6050    797.57731   -109938.55            0   -106639.61    51531.421 
    6100    791.03948    -109911.4            0    -106639.5    51835.539 
    6150    801.05751   -109952.96            0   -106639.63    51407.686 
    6200    799.09036   -109944.68            0   -106639.48    51485.945 
    6250    795.09378   -109928.13            0   -106639.47    51691.749 
    6300    797.91333   -109939.85            0   -106639.53    51610.312 
    6350    799.32052   -109945.81            0   -106639.67    51457.743 
    6400    797.70135   -109939.12            0   -106639.67     51551.23 
    6450    796.88239   -109935.71            0   -106639.65    51601.695 
    6500    797.49593   -109938.25            0   -106639.65    51537.012 
    6550    799.58372   -109946.72            0   -106639.49    51523.799 
    6600    797.56422   -109938.38            0    -106639.5    51600.099 
    6650     796.2561   -109932.95            0   -106639.48    51645.913 
    6700    799.40322   -109946.02            0   -106639.53    51554.525 
    6750    797.34373   -109937.45            0   -106639.48    51560.193 
    6800    800.29696   -109949.68            0   -106639.49    51456.018 
    6850    798.92524   -109943.97            0   -106639.46    51536.116 
    6900    800.55747    -109950.8            0   -106639.54    51451.163 
    6950    800.61279   -109951.01            0   -106639.52    51450.694 
    7000    796.30388   -109932.91            0   -106639.24    51651.354 
    7050    796.43558    -109933.5            0   -106639.28    51603.175 
    7100    797.25638   -109936.96            0   -106639.35    51592.771 
    7150    797.97452   -109939.97            0   -106639.39    51555.898 
    7200    797.69874   -109938.74            0    -106639.3    51610.328 
    7250    797.80314   -109939.28            0   -106639.41    51561.774 
    7300    793.84604   -109922.64            0   -106639.13    51720.866 
    7350    798.54987   -109942.33            0   -106639.37    51527.024 
    7400    799.74207    -109947.2            0   -106639.31    51506.849 
    7450    799.05661   -109944.35            0    -106639.3     51489.87 
    7500    797.08739    -109936.1            0   -106639.19    51568.271 
    7550    798.50589   -109941.98            0    -106639.2    51532.133 
    7600    798.61709   -109942.42            0   -106639.19    51549.561 
    7650    801.49852    -109954.3            0   -106639.14    51455.631 
    7700    800.18268   -109948.87            0   -106639.15    51491.112 
    7750    800.19078    -109948.8            0   -106639.05    51455.486 
    7800      795.285   -109928.49            0   -106639.04    51631.869 
    7850     800.4985   -109950.19            0   -106639.18    51478.707 
    7900    801.78934   -109955.43            0   -106639.07    51408.246 
    7950    797.43476   -109937.31            0   -106638.96    51549.224 
    8000    798.17352   -109940.38            0   -106638.98    51596.402 
    8050    798.25279   -109940.79            0   -106639.06    51524.703 
    8100    796.28794   -109932.72            0   -106639.12        51597 
    8150    797.49495   -109937.52            0   -106638.92    51590.254 
    8200    799.29964   -109945.01            0   -106638.95    51483.189 
    8250    798.57794   -109942.02            0   -106638.94     51487.98 
    8300    796.56978    -109933.6            0   -106638.84    51609.512 
    8350    797.65591   -109938.13            0   -106638.87    51604.936 
    8400    800.73292      -109951            0   -106639.01    51441.904 
    8450    795.59725   -109929.49            0   -106638.74    51646.726 
    8500      794.762   -109926.14            0   -106638.85      51739.8 
    8550     797.6795   -109938.44            0   -106639.08    51581.983 
    8600    799.23928   -109944.86            0   -106639.05    51477.524 
    8650    795.91704   -109930.95            0   -106638.89     51648.54 
    8700    797.88609   -109939.26            0   -106639.05    51551.203 
    8750    802.54778    -109958.7            0   -106639.21    51392.306 
    8800    796.50129    -109933.5            0   -106639.01    51622.092 
    8850    799.07084   -109944.17            0   -106639.06     51486.69 
    8900    799.81118   -109947.35            0   -106639.17    51453.362 
    8950    795.08404   -109927.44            0   -106638.82    51682.824 
    9000    797.57809   -109937.87            0   -106638.93     51559.04 
    9050    798.27905   -109940.83            0   -106638.99    51529.937 
    9100    792.82026      -109918            0   -106638.74     51780.31 
    9150    797.17591   -109936.31            0   -106639.04    51617.846 
    9200    791.36588   -109912.13            0   -106638.89    51861.083 
    9250     799.9535   -109947.77            0      -106639    51464.415 
    9300    799.16544    -109944.6            0    -106639.1    51456.101 
    9350    800.56918   -109950.27            0   -106638.95    51433.431 
    9400    794.18807   -109923.82            0    -106638.9    51642.845 
    9450     795.6152   -109929.82            0      -106639    51641.291 
    9500    797.47826   -109937.52            0      -106639    51586.008 
    9550    797.74486   -109938.65            0   -106639.02    51560.617 
    9600    796.42965   -109933.12            0   -106638.94    51607.021 
    9650    796.29102   -109932.51            0   -106638.89    51608.112 
    9700    803.28484   -109961.64            0    -106639.1    51310.679 
    9750    797.34856   -109936.93            0   -106638.94     51561.27 
    9800    799.58277   -109946.17            0   -106638.94      51525.1 
    9850    802.85926   -109959.91            0   -106639.12    51369.079 
    9900    800.95585   -109951.99            0   -106639.08    51438.305 
    9950    793.52359   -109920.96            0   -106638.79     51742.07 
   10000    799.81831   -109947.19            0   -106638.98    51432.169 
Loop time of 63.0307 on 2 procs for 10000 steps with 32000 atoms

Performance: 68.538 ns/day, 0.350 hours/ns, 158.653 timesteps/s
99.9% CPU use with 2 MPI tasks x 1 OpenMP threads

MPI task timing breakdown:
Section |  min time  |  avg time  |  max time  |%varavg| %total
---------------------------------------------------------------
Pair    | 53.829     | 53.85      | 53.871     |   0.3 | 85.43
Neigh   | 5.2624     | 5.2933     | 5.3242     |   1.3 |  8.40
Comm    | 2.1826     | 2.2392     | 2.2959     |   3.8 |  3.55
Output  | 0.0078539  | 0.0083838  | 0.0089137  |   0.6 |  0.01
Modify  | 1.0421     | 1.0499     | 1.0577     |   0.8 |  1.67
Other   |            | 0.59       |            |       |  0.94

Nlocal:          16000 ave       16007 max       15993 min
Histogram: 1 0 0 0 0 0 0 0 0 1
Nghost:          13821 ave       13828 max       13814 min
Histogram: 1 0 0 0 0 0 0 0 0 1
Neighs:         603864 ave      604477 max      603251 min
Histogram: 1 0 0 0 0 0 0 0 0 1

Total # of neighbors = 1207728
Ave neighs/atom = 37.7415
Neighbor list builds = 1427
Dangerous builds = 1
Total wall time: 0:01:03
Intel(R) VTune(TM) Profiler 2022.2.0 collection completed successfully. Use the "aps --report /home/ubuntu/lammps/bench/aps_result_20220703" command to generate textual and HTML reports for the profiling session.
