LAMMPS (7 Jan 2022)
  using 1 OpenMP thread(s) per MPI task
Lattice spacing in x,y,z = 3.615 3.615 3.615
Created orthogonal box = (0 0 0) to (144.6 144.6 144.6)
  2 by 2 by 2 MPI processor grid
Created 256000 atoms
  using lattice units in orthogonal box = (0 0 0) to (144.6 144.6 144.6)
  create_atoms CPU = 0.010 seconds
Reading eam potential file Cu_u3.eam with DATE: 2007-06-11
----------------------------------------------------------
Using INTEL Package without Coprocessor.
Compiler: Intel Classic C++ 20.21.5 / Intel(R) C++ g++ 9.3 mode
SIMD compiler directives: Enabled
Precision: mixed
----------------------------------------------------------
Neighbor list info ...
  update every 1 steps, delay 5 steps, check yes
  max neighbors/atom: 2000, page size: 100000
  master list distance cutoff = 5.95
  ghost atom cutoff = 5.95
  binsize = 2.975, bins = 49 49 49
  1 neighbor lists, perpetual/occasional/extra = 1 0 0
  (1) pair eam/intel, perpetual
      attributes: half, newton on, intel
      pair build: half/bin/newton/intel
      stencil: half/bin/3d
      bin: intel
Setting up Verlet run ...
  Unit style    : metal
  Current step  : 0
  Time step     : 0.005
Per MPI rank memory allocation (min/avg/max) = 284.2 | 284.2 | 284.2 Mbytes
Step Temp E_pair E_mol TotEng Press 
       0         1600   -906239.72            0   -853294.98        18704 
      50     780.3702   -878942.74            0   -853119.93     52325.52 
     100    798.91518   -879560.78            0    -853124.3    51436.892 
     150    795.67979   -879452.85            0   -853123.43    51622.588 
     200    797.93046   -879527.84            0   -853123.94    51516.042 
     250    797.51872   -879514.04            0   -853123.77    51535.136 
     300    798.09567   -879533.16            0   -853123.81    51506.859 
     350    796.90764   -879493.26            0   -853123.21     51573.87 
     400    797.85515   -879524.91            0   -853123.51    51551.578 
     450    798.42145    -879543.8            0   -853123.66    51521.885 
     500    799.16319   -879568.48            0   -853123.79    51492.901 
     550    796.86524   -879491.85            0    -853123.2        51561 
     600    797.12537   -879500.41            0   -853123.16    51559.758 
     650    797.44502   -879511.35            0   -853123.52    51554.809 
     700     796.8276   -879490.54            0   -853123.15    51588.468 
     750    798.83639   -879557.29            0   -853123.42    51491.351 
     800    798.59295   -879549.26            0   -853123.44      51509.6 
     850    798.37512   -879541.81            0    -853123.2     51525.08 
     900    797.95372   -879527.46            0    -853122.8    51540.869 
     950    799.17277   -879568.35            0   -853123.35     51497.21 
    1000    799.63775   -879583.68            0   -853123.29    51479.215 
    1050     798.6805   -879552.01            0    -853123.3     51478.33 
    1100    796.95147    -879494.1            0   -853122.61    51569.452 
    1150    796.76058   -879487.77            0   -853122.59    51574.722 
    1200    796.29672    -879472.1            0   -853122.27    51602.724 
    1250    797.07413   -879498.04            0   -853122.48     51553.73 
    1300    797.46884   -879511.07            0   -853122.45    51557.556 
    1350    798.97862   -879561.32            0   -853122.74    51496.601 
    1400    797.33561   -879506.23            0   -853122.02    51577.434 
    1450    797.62075   -879515.96            0   -853122.31     51544.47 
    1500    799.33562   -879573.21            0   -853122.82    51495.899 
    1550     797.4238   -879509.35            0   -853122.22    51545.735 
    1600    797.76652   -879520.53            0   -853122.06    51539.588 
    1650    796.96065   -879493.44            0   -853121.64    51592.985 
    1700    798.00467   -879528.69            0   -853122.34    51529.301 
    1750    797.63121   -879515.42            0   -853121.43    51550.101 
    1800       798.04   -879529.27            0   -853121.75    51527.317 
    1850    797.68288   -879517.48            0   -853121.78    51563.885 
    1900     797.8779    -879523.7            0   -853121.55    51545.481 
    1950    796.67152    -879483.6            0   -853121.37    51572.576 
    2000    798.30513    -879537.6            0   -853121.31    51529.356 
    2050    797.32378   -879504.89            0   -853121.07    51578.405 
    2100    798.17337   -879532.91            0   -853120.98    51534.746 
    2150    797.83591   -879522.01            0   -853121.25    51557.491 
    2200    798.07109   -879529.89            0   -853121.34    51552.441 
    2250    798.40601   -879541.43            0    -853121.8    51523.855 
    2300    796.63691   -879482.39            0    -853121.3    51593.991 
    2350    798.77853   -879553.72            0   -853121.77    51497.304 
    2400    798.53719   -879545.29            0   -853121.32    51521.172 
    2450    798.14327   -879532.63            0   -853121.69    51523.832 
    2500    797.81799   -879521.07            0    -853120.9    51554.206 
    2550    796.98246    -879493.2            0   -853120.67    51571.932 
    2600    798.62386   -879548.12            0   -853121.28    51521.501 
    2650    798.45083   -879541.97            0   -853120.86    51516.664 
    2700     798.1299   -879531.29            0    -853120.8    51543.084 
    2750    797.77803   -879519.73            0   -853120.88    51537.437 
    2800    796.95459   -879491.98            0   -853120.38    51573.336 
    2850    797.31635   -879504.18            0   -853120.61    51581.307 
    2900     796.9574   -879491.99            0    -853120.3    51582.973 
    2950    796.69349   -879483.44            0   -853120.48    51591.862 
    3000    797.23448   -879501.22            0   -853120.36    51564.584 
    3050    796.24969   -879468.42            0   -853120.14    51610.109 
    3100    796.40642   -879473.37            0   -853119.91    51612.869 
    3150    797.41742   -879506.85            0   -853119.93    51547.644 
    3200    799.34251   -879571.24            0   -853120.62    51487.128 
    3250    798.04965   -879527.74            0   -853119.91    51518.718 
    3300    797.62977   -879514.12            0   -853120.17    51561.307 
    3350    798.47327   -879542.23            0   -853120.38    51522.451 
    3400    797.40871   -879506.72            0   -853120.09    51567.575 
    3450    798.07969    -879528.9            0   -853120.07    51538.981 
    3500    798.53679   -879543.84            0   -853119.89    51507.216 
    3550    798.47382    -879542.1            0   -853120.23    51518.624 
    3600    796.82916   -879487.27            0   -853119.82    51583.107 
    3650     798.3874   -879539.16            0   -853120.15    51544.815 
    3700    798.46164   -879541.91            0   -853120.44    51519.517 
    3750    796.70988    -879483.2            0    -853119.7    51598.338 
    3800    796.75878   -879484.73            0   -853119.61    51585.625 
    3850    798.19689   -879533.18            0   -853120.47    51536.467 
    3900    798.39797   -879539.24            0   -853119.87    51525.081 
    3950    797.40791   -879506.71            0   -853120.11     51563.62 
    4000    796.22301   -879467.06            0   -853119.67    51625.496 
    4050    798.77428   -879552.15            0   -853120.34    51517.949 
    4100    798.59945   -879546.19            0   -853120.16    51532.982 
    4150    798.28234   -879535.75            0   -853120.21    51522.214 
    4200    798.86598   -879554.87            0   -853120.02    51512.141 
    4250    798.10989   -879529.74            0   -853119.91    51535.768 
    4300    798.10138      -879529            0   -853119.45    51538.345 
    4350    798.30157   -879535.87            0    -853119.7    51525.984 
    4400    796.53198    -879477.1            0   -853119.49    51593.676 
    4450    796.55114   -879477.56            0   -853119.31    51605.119 
    4500    796.74304   -879483.82            0   -853119.22    51592.214 
    4550    797.66062   -879514.17            0   -853119.21    51560.232 
    4600    798.45062   -879540.46            0   -853119.35    51521.625 
    4650    797.66377   -879514.25            0   -853119.19    51550.253 
    4700    797.98812   -879525.29            0   -853119.49    51515.668 
    4750    798.13045   -879529.87            0   -853119.36    51521.356 
    4800    799.08544   -879561.97            0   -853119.86    51484.063 
    4850    797.68201      -879515            0   -853119.33    51543.202 
    4900    796.92225   -879489.54            0   -853119.01    51590.004 
    4950    800.11752   -879595.75            0   -853119.48    51472.634 
    5000    798.59648   -879545.38            0   -853119.45     51515.47 
    5050    798.47883    -879541.3            0   -853119.26    51508.233 
    5100      797.703   -879515.33            0   -853118.96    51545.879 
    5150    797.68338   -879514.26            0   -853118.54    51552.624 
    5200    797.19864   -879498.54            0   -853118.86    51564.561 
    5250    798.51233   -879542.49            0   -853119.34    51510.586 
    5300    796.10977   -879462.55            0   -853118.91    51604.897 
    5350    798.32077   -879535.63            0   -853118.82    51519.811 
    5400    796.68205   -879481.67            0   -853119.09    51584.661 
    5450    800.57748   -879610.76            0   -853119.28    51434.465 
    5500    796.99641   -879491.77            0   -853118.78    51577.775 
    5550    797.79362   -879518.56            0    -853119.2      51540.5 
    5600     796.6842   -879481.51            0   -853118.85    51589.542 
    5650    797.79384   -879518.35            0   -853118.98    51553.168 
    5700    797.67911   -879514.41            0   -853118.83     51550.97 
    5750    798.35156   -879537.19            0   -853119.36    51522.484 
    5800    797.69496   -879515.11            0   -853119.01     51566.86 
    5850    797.65312   -879513.53            0   -853118.81    51558.848 
    5900    796.16556   -879463.45            0   -853117.96    51625.455 
    5950    798.45175   -879540.03            0   -853118.89    51538.747 
    6000     797.2833   -879501.17            0   -853118.69    51574.907 
    6050     798.0019   -879525.17            0   -853118.91    51547.544 
    6100    798.15747   -879530.35            0   -853118.95    51543.085 
    6150    796.56996   -879477.52            0   -853118.65    51577.657 
    6200    797.23197   -879499.76            0   -853118.98    51563.002 
    6250    798.04836   -879527.05            0   -853119.26    51536.626 
    6300    798.00569   -879525.49            0   -853119.11    51556.102 
    6350    797.47709   -879508.01            0   -853119.12    51559.008 
    6400    796.74769   -879483.58            0   -853118.83    51598.377 
    6450    797.12078   -879496.03            0   -853118.93    51581.472 
    6500    795.89248   -879454.91            0   -853118.46    51637.742 
    6550    797.51945   -879509.16            0   -853118.87    51546.705 
    6600    797.15267   -879496.54            0   -853118.38    51581.557 
    6650    799.25999   -879567.16            0   -853119.27    51478.029 
    6700     797.0483   -879493.44            0   -853118.73    51587.981 
    6750    799.06769    -879560.7            0   -853119.18    51501.107 
    6800    797.32369   -879502.23            0   -853118.42    51571.071 
    6850    796.86753   -879486.93            0   -853118.21    51588.228 
    6900    796.61441   -879478.86            0   -853118.52    51584.083 
    6950     796.9416   -879489.58            0   -853118.41    51588.501 
    7000    797.52451   -879508.92            0   -853118.46    51559.829 
    7050    796.97837   -879491.12            0   -853118.73    51587.262 
    7100    797.58822   -879511.15            0   -853118.58    51565.412 
    7150    796.23473   -879466.29            0   -853118.52    51608.503 
    7200    798.07954   -879527.43            0   -853118.61    51534.548 
    7250     797.9448   -879523.13            0   -853118.76    51556.097 
    7300     797.5827   -879510.68            0   -853118.29     51560.16 
    7350    798.85704   -879553.14            0   -853118.58    51490.451 
    7400    797.16286   -879496.86            0   -853118.36    51576.334 
    7450    797.52438   -879509.15            0    -853118.7    51575.542 
    7500    798.08827   -879527.41            0    -853118.3    51529.032 
    7550     798.2904   -879534.43            0   -853118.63    51518.433 
    7600    797.60202   -879511.57            0   -853118.55     51551.82 
    7650    796.62555   -879478.71            0   -853117.99    51607.438 
    7700    796.48536   -879474.16            0   -853118.09    51591.956 
    7750    798.50734   -879541.35            0   -853118.37    51528.167 
    7800    798.29585   -879534.27            0   -853118.29    51541.612 
    7850    797.81835   -879518.33            0   -853118.14    51533.615 
    7900    797.54289   -879509.26            0   -853118.19    51553.785 
    7950     797.1599   -879496.21            0   -853117.82     51577.09 
    8000    797.91253   -879521.66            0   -853118.36    51540.333 
    8050    797.21153   -879497.98            0   -853117.88    51555.659 
    8100    797.55207   -879509.24            0   -853117.87    51549.991 
    8150    798.19566    -879530.5            0   -853117.84    51528.798 
    8200    796.13799   -879462.22            0   -853117.64    51628.005 
    8250    798.30041   -879533.92            0   -853117.79    51531.718 
    8300    798.72297   -879547.46            0   -853117.34    51526.576 
    8350    798.31275   -879534.25            0    -853117.7     51529.63 
    8400    797.74091   -879515.45            0   -853117.83    51546.611 
    8450    797.66984   -879512.74            0   -853117.47    51556.522 
    8500      797.409   -879503.72            0   -853117.09    51568.248 
    8550    798.92475    -879554.2            0   -853117.41    51496.127 
    8600    795.96705   -879455.34            0   -853116.42    51611.467 
    8650    796.76278   -879481.75            0   -853116.49    51596.902 
    8700    798.60896   -879543.99            0   -853117.64    51534.884 
    8750    797.42655   -879503.76            0   -853116.54    51572.712 
    8800    797.31439   -879500.65            0   -853117.15    51574.462 
    8850    798.97031   -879555.53            0   -853117.23     51494.04 
    8900    796.17179   -879462.29            0   -853116.59    51606.577 
    8950    797.32115   -879500.31            0   -853116.58    51571.989 
    9000    797.52949   -879507.15            0   -853116.53    51565.229 
    9050    797.81906   -879517.02            0   -853116.81    51557.488 
    9100    798.18592   -879528.72            0   -853116.37    51557.374 
    9150    798.18126    -879528.6            0   -853116.41    51552.458 
    9200    797.47683   -879505.52            0   -853116.64     51571.34 
    9250    797.39479   -879502.64            0   -853116.48    51578.498 
    9300    799.37754   -879568.57            0   -853116.79    51482.708 
    9350    797.16786   -879494.96            0    -853116.3    51589.134 
    9400     798.3608   -879534.75            0   -853116.62    51534.501 
    9450    797.75111   -879514.54            0   -853116.58    51561.949 
    9500    796.80385   -879482.64            0   -853116.03    51592.055 
    9550    797.57053   -879508.38            0    -853116.4    51560.834 
    9600    798.19789   -879528.98            0   -853116.24    51544.376 
    9650    799.85799   -879584.79            0   -853117.12    51467.018 
    9700    798.22599   -879530.23            0   -853116.56    51538.219 
    9750    797.88101   -879518.47            0   -853116.21    51551.948 
    9800    798.23628   -879529.76            0   -853115.75    51522.295 
    9850    798.47635    -879538.3            0   -853116.35    51520.661 
    9900      799.047   -879557.36            0   -853116.52    51511.417 
    9950    798.19823   -879529.15            0    -853116.4    51536.675 
   10000    798.13547   -879526.78            0    -853116.1    51541.106 
Loop time of 128.561 on 8 procs for 10000 steps with 256000 atoms

Performance: 33.603 ns/day, 0.714 hours/ns, 77.784 timesteps/s
99.6% CPU use with 8 MPI tasks x 1 OpenMP threads

MPI task timing breakdown:
Section |  min time  |  avg time  |  max time  |%varavg| %total
---------------------------------------------------------------
Pair    | 106.1      | 106.4      | 106.96     |   2.7 | 82.76
Neigh   | 11.324     | 11.383     | 11.484     |   1.6 |  8.85
Comm    | 5.9237     | 6.4712     | 6.8343     |  12.9 |  5.03
Output  | 0.019905   | 0.020929   | 0.02228    |   0.6 |  0.02
Modify  | 2.6626     | 2.8789     | 3.1557     |   8.4 |  2.24
Other   |            | 1.407      |            |       |  1.09

Nlocal:          32000 ave       32103 max       31898 min
Histogram: 1 1 1 0 0 1 2 1 0 1
Nghost:        19909.9 ave       20013 max       19807 min
Histogram: 1 0 1 2 1 0 0 2 0 1
Neighs:    1.20808e+06 ave 1.21225e+06 max 1.20306e+06 min
Histogram: 1 0 1 1 0 1 2 0 1 1

Total # of neighbors = 9664636
Ave neighs/atom = 37.752484
Neighbor list builds = 1528
Dangerous builds = 6
Total wall time: 0:02:08
Intel(R) VTune(TM) Profiler 2022.2.0 collection completed successfully. Use the "aps --report /home/ubuntu/lammps/bench/aps_result_20220703" command to generate textual and HTML reports for the profiling session.
