LAMMPS (7 Jan 2022)
  using 1 OpenMP thread(s) per MPI task
Lattice spacing in x,y,z = 3.615 3.615 3.615
Created orthogonal box = (0 0 0) to (216.9 216.9 216.9)
  2 by 2 by 4 MPI processor grid
Created 864000 atoms
  using lattice units in orthogonal box = (0 0 0) to (216.9 216.9 216.9)
  create_atoms CPU = 0.014 seconds
Reading eam potential file Cu_u3.eam with DATE: 2007-06-11
----------------------------------------------------------
Using INTEL Package without Coprocessor.
Compiler: Intel Classic C++ 20.21.5 / Intel(R) C++ g++ 9.3 mode
SIMD compiler directives: Enabled
Precision: mixed
----------------------------------------------------------
Neighbor list info ...
  update every 1 steps, delay 5 steps, check yes
  max neighbors/atom: 2000, page size: 100000
  master list distance cutoff = 5.95
  ghost atom cutoff = 5.95
  binsize = 2.975, bins = 73 73 73
  1 neighbor lists, perpetual/occasional/extra = 1 0 0
  (1) pair eam/intel, perpetual
      attributes: half, newton on, intel
      pair build: half/bin/newton/intel
      stencil: half/bin/3d
      bin: intel
Setting up Verlet run ...
  Unit style    : metal
  Current step  : 0
  Time step     : 0.005
Per MPI rank memory allocation (min/avg/max) = 477.1 | 477.1 | 477.1 Mbytes
Step Temp E_pair E_mol TotEng Press 
       0         1600   -3058559.2            0   -2879870.1    18704.286 
      50    780.51281   -2966447.5            0   -2879279.4    52309.312 
     100    798.57088   -2968476.9            0     -2879292    51460.463 
Loop time of 4.71077 on 16 procs for 100 steps with 864000 atoms

Performance: 9.170 ns/day, 2.617 hours/ns, 21.228 timesteps/s
84.7% CPU use with 16 MPI tasks x 1 OpenMP threads

MPI task timing breakdown:
Section |  min time  |  avg time  |  max time  |%varavg| %total
---------------------------------------------------------------
Pair    | 2.7814     | 2.9688     | 3.624      |  10.2 | 63.02
Neigh   | 0.18781    | 0.21655    | 0.39451    |  10.0 |  4.60
Comm    | 0.44088    | 1.2322     | 1.5245     |  23.6 | 26.16
Output  | 0.00046851 | 0.018106   | 0.031701   |   6.9 |  0.38
Modify  | 0.068278   | 0.074431   | 0.095885   |   2.1 |  1.58
Other   |            | 0.2007     |            |       |  4.26

Nlocal:          54000 ave       54203 max       53811 min
Histogram: 2 1 1 1 4 1 2 2 1 1
Nghost:        29044.2 ave       29232 max       28842 min
Histogram: 1 1 2 2 1 4 1 1 1 2
Neighs:    2.03723e+06 ave 2.04628e+06 max 2.02854e+06 min
Histogram: 2 1 1 1 3 4 0 3 0 1

Total # of neighbors = 32595643
Ave neighs/atom = 37.726439
Neighbor list builds = 15
Dangerous builds = 0
Total wall time: 0:00:04
Intel(R) VTune(TM) Profiler 2022.2.0 collection completed successfully. Use the "aps --report /home/ubuntu/lammps/bench/aps_result_20220526" command to generate textual and HTML reports for the profiling session.
