LAMMPS (7 Jan 2022)
  using 1 OpenMP thread(s) per MPI task
New timer settings: style=full  mode=nosync  timeout=off
Lattice spacing in x,y,z = 3.615 3.615 3.615
Created orthogonal box = (0 0 0) to (289.2 289.2 289.2)
  4 by 4 by 4 MPI processor grid
Created 2048000 atoms
  using lattice units in orthogonal box = (0 0 0) to (289.2 289.2 289.2)
  create_atoms CPU = 0.007 seconds
Reading eam potential file Cu_u3.eam with DATE: 2007-06-11
----------------------------------------------------------
Using INTEL Package without Coprocessor.
Compiler: Intel Classic C++ 20.21.5 / Intel(R) C++ g++ 9.3 mode
SIMD compiler directives: Enabled
Precision: mixed
----------------------------------------------------------
Neighbor list info ...
  update every 1 steps, delay 5 steps, check yes
  max neighbors/atom: 2000, page size: 100000
  master list distance cutoff = 5.95
  ghost atom cutoff = 5.95
  binsize = 2.975, bins = 98 98 98
  1 neighbor lists, perpetual/occasional/extra = 1 0 0
  (1) pair eam/intel, perpetual
      attributes: half, newton on, intel
      pair build: half/bin/newton/intel
      stencil: half/bin/3d
      bin: intel
Setting up Verlet run ...
  Unit style    : metal
  Current step  : 0
  Time step     : 0.005
Per MPI rank memory allocation (min/avg/max) = 264.1 | 284.2 | 304.8 Mbytes
Step Temp E_pair E_mol TotEng Press 
       0         1600   -7249918.3            0   -6826358.9    18704.056 
      50    780.81541   -7031660.7            0   -6824959.7    52291.357 
     100    798.21778   -7036295.2            0   -6824987.2     51479.46 
Loop time of 1.98161 on 64 procs for 100 steps with 2048000 atoms

Performance: 21.800 ns/day, 1.101 hours/ns, 50.464 timesteps/s
98.7% CPU use with 64 MPI tasks x 1 OpenMP threads

MPI task timing breakdown:
Section |  min time  |  avg time  |  max time  |%varavg|  %CPU | %total
-----------------------------------------------------------------------
Pair    | 1.4812     | 1.5075     | 1.5478     |   1.4 |  99.3 | 76.08
Neigh   | 0.14769    | 0.14977    | 0.15574    |   0.5 |  99.5 |  7.56
Comm    | 0.13419    | 0.16724    | 0.20111    |   4.7 |  94.0 |  8.44
Output  | 0.0005526  | 0.00067889 | 0.0011491  |   0.0 | 100.0 |  0.03
Modify  | 0.096908   | 0.1098     | 0.12164    |   1.8 |  97.3 |  5.54
Other   |            | 0.04661    |            |       |       |  2.35

Nlocal:          32000 ave       32184 max       31846 min
Histogram: 3 3 11 12 7 11 9 4 2 2
Nghost:        19909.2 ave       20064 max       19726 min
Histogram: 2 2 5 9 9 9 11 11 3 3
Neighs:    1.20723e+06 ave 1.21893e+06 max 1.19543e+06 min
Histogram: 2 3 7 10 9 11 9 8 2 3

Total # of neighbors = 77262599
Ave neighs/atom = 37.725878
Neighbor list builds = 15
Dangerous builds = 0
Total wall time: 0:00:02
Intel(R) VTune(TM) Profiler 2022.2.0 collection completed successfully. Use the "aps --report /home/ubuntu/lammps/bench/aps_result_20220519" command to generate textual and HTML reports for the profiling session.
