LAMMPS (7 Jan 2022)
  using 1 OpenMP thread(s) per MPI task
Lattice spacing in x,y,z = 3.615 3.615 3.615
Created orthogonal box = (0 0 0) to (216.9 216.9 216.9)
  2 by 2 by 4 MPI processor grid
Created 864000 atoms
  using lattice units in orthogonal box = (0 0 0) to (216.9 216.9 216.9)
  create_atoms CPU = 0.013 seconds
Reading eam potential file Cu_u3.eam with DATE: 2007-06-11
----------------------------------------------------------
Using INTEL Package without Coprocessor.
Compiler: Intel Classic C++ 20.21.5 / Intel(R) C++ g++ 9.3 mode
SIMD compiler directives: Enabled
Precision: double
----------------------------------------------------------
Neighbor list info ...
  update every 1 steps, delay 5 steps, check yes
  max neighbors/atom: 2000, page size: 100000
  master list distance cutoff = 5.95
  ghost atom cutoff = 5.95
  binsize = 2.975, bins = 73 73 73
  1 neighbor lists, perpetual/occasional/extra = 1 0 0
  (1) pair eam/intel, perpetual
      attributes: half, newton on, intel
      pair build: half/bin/newton/intel
      stencil: half/bin/3d
      bin: intel
Setting up Verlet run ...
  Unit style    : metal
  Current step  : 0
  Time step     : 0.005
Per MPI rank memory allocation (min/avg/max) = 478.5 | 478.5 | 478.5 Mbytes
Step Temp E_pair E_mol TotEng Press 
       0         1600     -3058560            0     -2879871    18704.136 
      50    780.51286   -2966447.6            0   -2879279.4    52309.328 
     100    798.57089     -2968477            0   -2879292.1    51460.466 
Loop time of 2.88637 on 16 procs for 100 steps with 864000 atoms

Performance: 14.967 ns/day, 1.604 hours/ns, 34.646 timesteps/s
97.4% CPU use with 16 MPI tasks x 1 OpenMP threads

MPI task timing breakdown:
Section |  min time  |  avg time  |  max time  |%varavg| %total
---------------------------------------------------------------
Pair    | 2.1066     | 2.2891     | 2.4083     |   4.5 | 79.31
Neigh   | 0.20279    | 0.2405     | 0.25631    |   2.8 |  8.33
Comm    | 0.11732    | 0.25026    | 0.47715    |  16.4 |  8.67
Output  | 0.00042708 | 0.0005348  | 0.00073508 |   0.0 |  0.02
Modify  | 0.068517   | 0.072308   | 0.0765     |   0.8 |  2.51
Other   |            | 0.03368    |            |       |  1.17

Nlocal:          54000 ave       54203 max       53811 min
Histogram: 2 1 1 1 4 1 2 2 1 1
Nghost:        29044.2 ave       29232 max       28842 min
Histogram: 1 1 2 2 1 4 1 1 1 2
Neighs:    2.03723e+06 ave 2.04628e+06 max 2.02854e+06 min
Histogram: 2 1 1 1 3 4 0 3 0 1

Total # of neighbors = 32595623
Ave neighs/atom = 37.726416
Neighbor list builds = 15
Dangerous builds = 0
Total wall time: 0:00:02
Intel(R) VTune(TM) Profiler 2022.2.0 collection completed successfully. Use the "aps --report /home/ubuntu/lammps/bench/aps_result_20220601" command to generate textual and HTML reports for the profiling session.
