LAMMPS (7 Jan 2022)
  using 1 OpenMP thread(s) per MPI task
New timer settings: style=full  mode=nosync  timeout=off
Lattice spacing in x,y,z = 3.615 3.615 3.615
Created orthogonal box = (0 0 0) to (144.6 144.6 144.6)
  4 by 4 by 4 MPI processor grid
Created 256000 atoms
  using lattice units in orthogonal box = (0 0 0) to (144.6 144.6 144.6)
  create_atoms CPU = 0.002 seconds
Reading eam potential file Cu_u3.eam with DATE: 2007-06-11
----------------------------------------------------------
Using INTEL Package without Coprocessor.
Compiler: Intel Classic C++ 20.21.5 / Intel(R) C++ g++ 9.3 mode
SIMD compiler directives: Enabled
Precision: mixed
----------------------------------------------------------
Neighbor list info ...
  update every 1 steps, delay 5 steps, check yes
  max neighbors/atom: 2000, page size: 100000
  master list distance cutoff = 5.95
  ghost atom cutoff = 5.95
  binsize = 2.975, bins = 49 49 49
  1 neighbor lists, perpetual/occasional/extra = 1 0 0
  (1) pair eam/intel, perpetual
      attributes: half, newton on, intel
      pair build: half/bin/newton/intel
      stencil: half/bin/3d
      bin: intel
Setting up Verlet run ...
  Unit style    : metal
  Current step  : 0
  Time step     : 0.005
Per MPI rank memory allocation (min/avg/max) = 32.92 | 37.72 | 43.02 Mbytes
Step Temp E_pair E_mol TotEng Press 
       0         1600   -906239.72            0   -853294.98        18704 
      50     780.3702   -878942.74            0   -853119.92    52325.527 
     100    798.91523   -879560.78            0    -853124.3    51436.889 
Loop time of 0.265108 on 64 procs for 100 steps with 256000 atoms

Performance: 162.953 ns/day, 0.147 hours/ns, 377.205 timesteps/s
93.7% CPU use with 64 MPI tasks x 1 OpenMP threads

MPI task timing breakdown:
Section |  min time  |  avg time  |  max time  |%varavg|  %CPU | %total
-----------------------------------------------------------------------
Pair    | 0.18966    | 0.19268    | 0.19654    |   0.3 |  94.4 | 72.68
Neigh   | 0.019501   | 0.02008    | 0.021172   |   0.2 |  91.6 |  7.57
Comm    | 0.033537   | 0.037803   | 0.042776   |   0.9 |  90.7 | 14.26
Output  | 0.00018378 | 0.00021376 | 0.00028359 |   0.0 | 100.0 |  0.08
Modify  | 0.0071662  | 0.0090082  | 0.011101   |   0.9 |  95.1 |  3.40
Other   |            | 0.00532    |            |       |       |  2.01

Nlocal:           4000 ave        4077 max        3943 min
Histogram: 4 5 10 11 10 12 6 3 2 1
Nghost:        5840.62 ave        5898 max        5764 min
Histogram: 1 2 3 6 10 13 10 10 5 4
Neighs:         150909 ave      154046 max      148537 min
Histogram: 3 7 7 12 9 10 9 4 2 1

Total # of neighbors = 9658198
Ave neighs/atom = 37.727336
Neighbor list builds = 15
Dangerous builds = 0
Total wall time: 0:00:00
Intel(R) VTune(TM) Profiler 2022.2.0 collection completed successfully. Use the "aps --report /home/ubuntu/lammps/bench/aps_result_20220519" command to generate textual and HTML reports for the profiling session.
