LAMMPS (7 Jan 2022)
  using 1 OpenMP thread(s) per MPI task
Lattice spacing in x,y,z = 3.615 3.615 3.615
Created orthogonal box = (0 0 0) to (72.3 72.3 72.3)
  2 by 4 by 4 MPI processor grid
Created 32000 atoms
  using lattice units in orthogonal box = (0 0 0) to (72.3 72.3 72.3)
  create_atoms CPU = 0.001 seconds
Reading eam potential file Cu_u3.eam with DATE: 2007-06-11
----------------------------------------------------------
Using INTEL Package without Coprocessor.
Compiler: Intel Classic C++ 20.21.5 / Intel(R) C++ g++ 9.3 mode
SIMD compiler directives: Enabled
Precision: mixed
----------------------------------------------------------
Neighbor list info ...
  update every 1 steps, delay 5 steps, check yes
  max neighbors/atom: 2000, page size: 100000
  master list distance cutoff = 5.95
  ghost atom cutoff = 5.95
  binsize = 2.975, bins = 25 25 25
  1 neighbor lists, perpetual/occasional/extra = 1 0 0
  (1) pair eam/intel, perpetual
      attributes: half, newton on, intel
      pair build: half/bin/newton/intel
      stencil: half/bin/3d
      bin: intel
Setting up Verlet run ...
  Unit style    : metal
  Current step  : 0
  Time step     : 0.005
Per MPI rank memory allocation (min/avg/max) = 10.47 | 12.07 | 13.83 Mbytes
Step Temp E_pair E_mol TotEng Press 
       0         1600   -113279.97            0   -106662.06    18703.495 
      50    781.69067   -109873.35            0   -106640.12    52273.084 
     100    801.83215    -109957.3            0   -106640.76    51322.817 
Loop time of 0.130632 on 32 procs for 100 steps with 32000 atoms

Performance: 330.700 ns/day, 0.073 hours/ns, 765.510 timesteps/s
84.8% CPU use with 32 MPI tasks x 1 OpenMP threads

MPI task timing breakdown:
Section |  min time  |  avg time  |  max time  |%varavg| %total
---------------------------------------------------------------
Pair    | 0.064499   | 0.071309   | 0.090577   |   2.3 | 54.59
Neigh   | 0.0035424  | 0.0043905  | 0.0047332  |   0.4 |  3.36
Comm    | 0.033887   | 0.045737   | 0.060346   |   3.5 | 35.01
Output  | 5.1756e-05 | 5.6699e-05 | 6.6695e-05 |   0.0 |  0.04
Modify  | 0.00072985 | 0.00089503 | 0.00095867 |   0.0 |  0.69
Other   |            | 0.008244   |            |       |  6.31

Nlocal:           1000 ave        1026 max         967 min
Histogram: 1 1 1 3 6 6 5 6 0 3
Nghost:        2900.69 ave        2934 max        2875 min
Histogram: 3 0 6 5 7 5 3 2 0 1
Neighs:        37743.2 ave       38676 max       36443 min
Histogram: 1 0 3 1 8 4 4 4 4 3

Total # of neighbors = 1207782
Ave neighs/atom = 37.743187
Neighbor list builds = 13
Dangerous builds = 0
Total wall time: 0:00:00
Intel(R) VTune(TM) Profiler 2022.2.0 collection completed successfully. Use the "aps --report /home/ubuntu/lammps/bench/aps_result_20220526" command to generate textual and HTML reports for the profiling session.
