LAMMPS (7 Jan 2022)
  using 1 OpenMP thread(s) per MPI task
Lattice spacing in x,y,z = 3.615 3.615 3.615
Created orthogonal box = (0 0 0) to (289.2 289.2 289.2)
  1 by 2 by 2 MPI processor grid
Created 2048000 atoms
  using lattice units in orthogonal box = (0 0 0) to (289.2 289.2 289.2)
  create_atoms CPU = 0.067 seconds
Reading eam potential file Cu_u3.eam with DATE: 2007-06-11
----------------------------------------------------------
Using INTEL Package without Coprocessor.
Compiler: Intel Classic C++ 20.21.5 / Intel(R) C++ g++ 9.3 mode
SIMD compiler directives: Enabled
Precision: mixed
----------------------------------------------------------
Neighbor list info ...
  update every 1 steps, delay 5 steps, check yes
  max neighbors/atom: 2000, page size: 100000
  master list distance cutoff = 5.95
  ghost atom cutoff = 5.95
  binsize = 2.975, bins = 98 98 98
  1 neighbor lists, perpetual/occasional/extra = 1 0 0
  (1) pair eam/intel, perpetual
      attributes: half, newton on, intel
      pair build: half/bin/newton/intel
      stencil: half/bin/3d
      bin: intel
Setting up Verlet run ...
  Unit style    : metal
  Current step  : 0
  Time step     : 0.005
Per MPI rank memory allocation (min/avg/max) = 4455 | 4455 | 4455 Mbytes
Step Temp E_pair E_mol TotEng Press 
       0         1600   -7249918.3            0   -6826358.9    18704.056 
      50     780.8154   -7031660.7            0   -6824959.7    52291.357 
     100    798.21782   -7036295.1            0   -6824987.2    51479.463 
     150     797.4476   -7036092.2            0   -6824988.1     51537.98 
     200    797.94527   -7036225.3            0   -6824989.5    51521.863 
     250    797.47928   -7036101.1            0   -6824988.7    51545.007 
     300    798.50352   -7036374.2            0   -6824990.6    51508.821 
     350     797.5726   -7036125.2            0     -6824988    51546.554 
     400    797.67043   -7036151.7            0   -6824988.7    51542.647 
     450    798.03815   -7036249.6            0   -6824989.3    51530.829 
     500    797.62465   -7036139.8            0   -6824988.8    51552.148 
     550    797.88031   -7036206.8            0   -6824988.2    51537.715 
     600    798.00995   -7036241.9            0     -6824989    51526.842 
     650    797.37488     -7036072            0   -6824987.2    51553.918 
     700    797.64982   -7036144.6            0     -6824987    51546.321 
     750    797.41293   -7036081.2            0   -6824986.3    51554.482 
     800    796.99528   -7035970.1            0   -6824985.8    51570.431 
     850    797.57377   -7036123.6            0   -6824986.1    51550.587 
     900    797.44297   -7036088.2            0   -6824985.4    51556.869 
     950    797.95545   -7036224.6            0   -6824986.1    51533.086 
    1000    797.31417   -7036052.3            0   -6824983.6    51568.028 
    1050    797.50977   -7036105.4            0   -6824984.9    51548.303 
    1100    797.23194   -7036029.9            0     -6824983    51564.813 
    1150    798.04963   -7036248.8            0   -6824985.4    51532.648 
    1200    797.99811   -7036233.1            0   -6824983.4    51541.864 
    1250    797.51943   -7036104.8            0   -6824981.8    51557.087 
    1300    797.84572     -7036192            0   -6824982.5    51540.451 
    1350    797.73761   -7036163.2            0   -6824982.4    51545.324 
    1400    797.50372   -7036100.4            0   -6824981.5    51559.636 
    1450    797.53418   -7036108.1            0   -6824981.2    51547.615 
    1500    798.13389   -7036267.4            0   -6824981.6    51532.233 
    1550    797.44122   -7036082.1            0   -6824979.8    51563.403 
    1600    797.59724   -7036123.6            0   -6824979.9     51555.13 
    1650    797.94795   -7036217.2            0   -6824980.7     51534.74 
    1700    797.37535   -7036064.3            0   -6824979.4     51559.41 
    1750    797.54833   -7036109.9            0   -6824979.2    51554.278 
    1800    797.97042   -7036222.3            0   -6824979.9    51535.289 
    1850    798.32116   -7036315.4            0   -6824980.1    51521.758 
    1900    798.20886   -7036284.7            0   -6824979.2        51532 
    1950    797.46261   -7036086.3            0   -6824978.3    51559.405 
    2000    797.74564   -7036161.2            0   -6824978.3    51544.011 
    2050    798.10443   -7036255.9            0     -6824978     51531.64 
    2100    797.74347   -7036159.5            0   -6824977.2    51550.417 
    2150     797.5013   -7036095.1            0   -6824976.9    51560.875 
    2200    797.79182   -7036172.5            0   -6824977.3    51542.421 
    2250    797.69733   -7036146.2            0   -6824976.1    51551.416 
    2300    797.99676   -7036226.6            0   -6824977.2    51534.414 
    2350    797.89374   -7036197.9            0   -6824975.8    51545.388 
    2400    798.43329   -7036341.5            0   -6824976.5    51518.559 
    2450    797.97818   -7036220.7            0   -6824976.2      51534.7 
    2500    797.91698   -7036203.6            0   -6824975.3    51542.727 
    2550    798.44655   -7036343.7            0   -6824975.2    51515.964 
    2600    797.78772     -7036168            0   -6824973.9    51549.029 
    2650    798.09093   -7036248.5            0   -6824974.1    51534.237 
    2700    797.40236   -7036064.6            0   -6824972.6    51565.231 
    2750    797.69572   -7036143.2            0   -6824973.5    51549.548 
    2800    798.01503   -7036228.3            0   -6824974.1    51534.348 
    2850    797.70896   -7036145.4            0   -6824972.2    51551.976 
    2900     797.0147   -7035960.2            0   -6824970.8    51578.214 
    2950    798.14257   -7036259.9            0   -6824971.8    51533.634 
    3000    797.28171   -7036030.7            0   -6824970.6    51562.224 
    3050    797.39067   -7036059.2            0   -6824970.2    51567.825 
    3100    797.77365   -7036160.9            0   -6824970.6    51543.363 
    3150    797.91557   -7036198.3            0   -6824970.4    51538.466 
    3200    798.32377   -7036306.8            0   -6824970.8    51526.419 
    3250    797.87497   -7036187.5            0   -6824970.4     51533.03 
    3300    797.98433   -7036215.7            0   -6824969.6    51537.011 
    3350    797.27898   -7036027.2            0   -6824967.8    51560.473 
    3400    797.32872   -7036039.8            0   -6824967.2    51564.325 
    3450    797.10048   -7035978.4            0   -6824966.2    51571.027 
    3500    797.76436   -7036155.2            0   -6824967.3    51543.008 
    3550    797.50748   -7036085.8            0   -6824965.9    51558.609 
    3600    797.92189     -7036196            0   -6824966.4    51537.994 
    3650    797.93508   -7036198.4            0   -6824965.3    51539.146 
    3700    798.20711   -7036270.8            0   -6824965.7    51528.126 
    3750    797.20333   -7036003.2            0   -6824963.8    51569.428 
    3800    798.35543   -7036310.2            0   -6824965.9    51518.705 
    3850    797.85002   -7036175.4            0   -6824964.8    51546.884 
    3900    798.05986   -7036231.1            0     -6824965     51531.25 
    3950     797.7338   -7036141.6            0   -6824961.8    51547.039 
    4000     797.8916   -7036184.5            0     -6824963    51545.545 
    4050    797.42672   -7036059.5            0     -6824961    51561.932 
    4100    797.67449   -7036125.3            0   -6824961.2     51555.17 
    4150    797.66829   -7036123.1            0   -6824960.6    51546.163 
    4200    797.16384   -7035988.6            0   -6824959.7    51570.144 
    4250    797.76617   -7036147.7            0   -6824959.3    51551.855 
    4300    798.00502   -7036211.1            0   -6824959.5     51541.74 
    4350    797.82089   -7036161.5            0   -6824958.6     51548.28 
    4400    797.74987   -7036143.2            0   -6824959.1    51541.465 
    4450    797.88212   -7036178.6            0   -6824959.5    51546.205 
    4500    797.76363   -7036146.1            0   -6824958.4    51549.654 
    4550    798.05726     -7036225            0   -6824959.6    51541.274 
    4600    798.06707   -7036227.2            0   -6824959.2    51538.696 
    4650    798.07546   -7036227.9            0   -6824957.6     51537.54 
    4700    798.18589   -7036257.6            0   -6824958.1    51527.389 
    4750    797.59304   -7036099.9            0   -6824957.3    51558.652 
    4800    797.55412   -7036088.6            0   -6824956.4    51566.897 
    4850     798.2317   -7036268.2            0   -6824956.6    51531.913 
    4900    796.97419     -7035933            0   -6824954.2    51579.765 
    4950    798.26354   -7036276.6            0   -6824956.6    51527.212 
    5000    797.64898   -7036111.8            0   -6824954.4    51555.002 
    5050    798.48492   -7036334.3            0   -6824955.7    51521.341 
    5100    798.05764     -7036221            0   -6824955.5    51538.572 
    5150     797.4807   -7036066.8            0     -6824954     51561.38 
    5200    797.59798   -7036096.4            0   -6824952.6    51557.747 
    5250    797.89984   -7036178.1            0   -6824954.4    51539.562 
    5300    797.79175   -7036148.5            0   -6824953.3    51550.324 
    5350     797.7698   -7036141.7            0   -6824952.4    51552.963 
    5400     797.3765   -7036036.9            0   -6824951.7    51571.577 
    5450    797.96457   -7036194.2            0   -6824953.3    51540.813 
    5500    797.51851   -7036074.4            0   -6824951.6    51558.299 
    5550    798.01777   -7036206.8            0   -6824951.8     51538.34 
    5600    798.07627   -7036223.2            0   -6824952.7    51538.832 
    5650    797.58613   -7036091.9            0   -6824951.2     51560.34 
    5700    797.86922   -7036166.9            0   -6824951.3    51549.084 
    5750    798.33535   -7036290.8            0   -6824951.8    51528.486 
    5800    798.00057   -7036201.1            0   -6824950.7    51541.895 
    5850    797.59404   -7036093.5            0   -6824950.7    51555.662 
    5900    797.92196   -7036179.5            0   -6824949.9    51543.568 
    5950    797.48947   -7036062.5            0   -6824947.4    51566.424 
    6000    797.77955   -7036140.2            0   -6824948.3    51542.859 
    6050    797.83667   -7036155.7            0   -6824948.7     51547.13 
    6100    797.94827   -7036185.2            0   -6824948.6    51544.988 
    6150     797.5172   -7036070.4            0   -6824947.9    51563.775 
    6200    798.16383   -7036242.8            0   -6824949.1    51531.298 
    6250    797.58886   -7036090.1            0   -6824948.7    51561.295 
    6300    798.40093   -7036305.5            0   -6824949.1    51522.344 
    6350    797.36174   -7036028.2            0   -6824946.9    51571.241 
    6400    798.18924   -7036248.9            0   -6824948.5    51535.772 
    6450    797.85998   -7036161.5            0   -6824948.3    51541.104 
    6500     798.2435   -7036261.3            0   -6824946.6    51533.853 
    6550    798.08182   -7036218.4            0   -6824946.5    51537.764 
    6600    798.22551   -7036255.9            0     -6824946    51527.673 
    6650    797.94122   -7036180.1            0   -6824945.4    51545.113 
    6700    798.32856     -7036282            0   -6824944.8    51532.592 
    6750    797.36494   -7036025.6            0   -6824943.5     51565.56 
    6800    797.70853   -7036117.9            0   -6824944.8     51554.41 
    6850    798.16889   -7036239.1            0   -6824944.1      51537.2 
    6900    797.90698   -7036169.5            0   -6824943.9    51548.978 
    6950    797.93721   -7036175.9            0   -6824942.3    51543.339 
    7000    797.73274   -7036121.5            0     -6824942    51555.213 
    7050     798.0531     -7036206            0   -6824941.7    51533.041 
    7100    798.12459   -7036224.9            0   -6824941.6    51534.923 
    7150    798.17897   -7036239.4            0   -6824941.7    51538.556 
    7200    797.89103   -7036163.4            0   -6824941.9    51543.825 
    7250    797.88795   -7036161.2            0   -6824940.6     51552.71 
    7300    798.17611   -7036237.7            0   -6824940.8    51535.796 
    7350    797.72049   -7036115.1            0   -6824938.8    51555.988 
    7400    798.12682   -7036223.3            0   -6824939.5    51536.226 
    7450    797.73222     -7036118            0   -6824938.6    51557.061 
    7500    797.42104   -7036034.5            0   -6824937.5    51569.489 
    7550    797.65009   -7036094.8            0   -6824937.2    51556.719 
    7600     798.2024   -7036241.6            0   -6824937.7    51532.051 
    7650    797.63975   -7036091.8            0   -6824936.9    51559.358 
    7700    797.81047   -7036136.5            0   -6824936.4     51547.25 
    7750    797.78659   -7036129.4            0   -6824935.6    51553.947 
    7800    797.32969   -7036007.2            0   -6824934.3    51569.212 
    7850    797.81272   -7036135.8            0   -6824935.1    51560.405 
    7900    797.63104   -7036087.1            0   -6824934.6    51553.684 
    7950    798.10693   -7036214.2            0   -6824935.6    51532.293 
    8000    797.89139   -7036155.4            0   -6824933.9    51547.679 
    8050    797.59513   -7036076.9            0   -6824933.8    51556.056 
    8100    797.82685   -7036138.3            0   -6824933.9    51547.985 
    8150    797.83053   -7036138.8            0   -6824933.4    51550.264 
    8200    797.83702   -7036139.4            0   -6824932.3    51550.175 
    8250    798.26166   -7036252.8            0   -6824933.3     51531.53 
    8300    797.75902   -7036118.1            0   -6824931.6    51551.382 
    8350    798.05795   -7036197.1            0   -6824931.4    51545.897 
    8400    797.92214   -7036161.2            0   -6824931.6     51546.42 
    8450    797.88082   -7036149.1            0   -6824930.3    51557.119 
    8500    797.98123   -7036175.2            0   -6824929.9    51546.992 
    8550    798.17158     -7036226            0   -6824930.3     51537.04 
    8600    797.59039   -7036070.3            0   -6824928.5    51563.924 
    8650    797.83966   -7036136.5            0   -6824928.7    51554.881 
    8700    797.63762   -7036082.3            0   -6824927.9    51559.714 
    8750    797.40321   -7036019.6            0   -6824927.3    51568.836 
    8800    797.86582   -7036142.8            0   -6824928.1    51557.328 
    8850    797.92866   -7036159.1            0   -6824927.7    51555.633 
    8900    798.13162   -7036211.6            0   -6824926.5    51540.876 
    8950    797.94083   -7036160.5            0   -6824925.9    51545.164 
    9000    798.18914   -7036226.8            0   -6824926.4    51538.232 
    9050    798.12603   -7036209.4            0   -6824925.8    51540.222 
    9100    797.25883   -7035977.6            0   -6824923.6    51575.108 
    9150    797.73267   -7036104.4            0   -6824924.9    51561.362 
    9200    797.84348   -7036133.2            0   -6824924.4    51557.614 
    9250    797.76996   -7036113.1            0   -6824923.7    51558.401 
    9300    797.76775     -7036112            0   -6824923.2    51550.755 
    9350    798.11284   -7036203.5            0   -6824923.4    51543.111 
    9400    798.43284   -7036288.8            0   -6824923.9    51530.838 
    9450    797.91622   -7036150.5            0   -6824922.4    51546.167 
    9500    797.63316     -7036075            0   -6824921.9    51563.965 
    9550    797.48243   -7036035.1            0   -6824921.8    51565.038 
    9600    798.31665   -7036256.7            0   -6824922.6    51538.004 
    9650    797.49511   -7036038.6            0     -6824922    51571.672 
    9700    798.22954   -7036233.3            0   -6824922.3    51539.535 
    9750    798.00327   -7036172.4            0   -6824921.3    51545.325 
    9800    797.64151   -7036075.9            0   -6824920.5     51560.71 
    9850     798.5452   -7036317.4            0   -6824922.8    51527.858 
    9900    797.92479   -7036151.7            0   -6824921.4    51547.445 
    9950    797.93185   -7036152.2            0     -6824920    51557.312 
   10000     797.7856   -7036114.2            0   -6824920.7    51552.299 
Loop time of 2112.85 on 4 procs for 10000 steps with 2048000 atoms

Performance: 2.045 ns/day, 11.738 hours/ns, 4.733 timesteps/s
99.7% CPU use with 4 MPI tasks x 1 OpenMP threads

MPI task timing breakdown:
Section |  min time  |  avg time  |  max time  |%varavg| %total
---------------------------------------------------------------
Pair    | 1726.3     | 1733.2     | 1738.6     |  12.8 | 82.03
Neigh   | 183.64     | 186.94     | 190.33     |  20.7 |  8.85
Comm    | 99.911     | 106.02     | 114.73     |  57.5 |  5.02
Output  | 0.28869    | 0.30573    | 0.32035    |   2.3 |  0.01
Modify  | 60.077     | 62.474     | 64.648     |  25.8 |  2.96
Other   |            | 23.87      |            |       |  1.13

Nlocal:         512000 ave      512223 max      511827 min
Histogram: 1 1 0 0 0 0 1 0 0 1
Nghost:         120006 ave      120178 max      119782 min
Histogram: 1 0 0 1 0 0 0 0 1 1
Neighs:    1.93287e+07 ave 1.93553e+07 max 1.93144e+07 min
Histogram: 2 0 0 1 0 0 0 0 0 1

Total # of neighbors = 77314939
Ave neighs/atom = 37.751435
Neighbor list builds = 1669
Dangerous builds = 27
Total wall time: 0:35:13
Intel(R) VTune(TM) Profiler 2022.2.0 collection completed successfully. Use the "aps --report /home/ubuntu/lammps/bench/aps_result_20220703" command to generate textual and HTML reports for the profiling session.
