LAMMPS (7 Jan 2022)
  using 1 OpenMP thread(s) per MPI task
Lattice spacing in x,y,z = 3.615 3.615 3.615
Created orthogonal box = (0 0 0) to (144.6 144.6 144.6)
  1 by 1 by 1 MPI processor grid
Created 256000 atoms
  using lattice units in orthogonal box = (0 0 0) to (144.6 144.6 144.6)
  create_atoms CPU = 0.034 seconds
Reading eam potential file Cu_u3.eam with DATE: 2007-06-11
----------------------------------------------------------
Using INTEL Package without Coprocessor.
Compiler: Intel Classic C++ 20.21.5 / Intel(R) C++ g++ 9.3 mode
SIMD compiler directives: Enabled
Precision: single
----------------------------------------------------------
Neighbor list info ...
  update every 1 steps, delay 5 steps, check yes
  max neighbors/atom: 2000, page size: 100000
  master list distance cutoff = 5.95
  ghost atom cutoff = 5.95
  binsize = 2.975, bins = 49 49 49
  1 neighbor lists, perpetual/occasional/extra = 1 0 0
  (1) pair eam/intel, perpetual
      attributes: half, newton on, intel
      pair build: half/bin/newton/intel
      stencil: half/bin/3d
      bin: intel
Setting up Verlet run ...
  Unit style    : metal
  Current step  : 0
  Time step     : 0.005
Per MPI rank memory allocation (min/avg/max) = 2227 | 2227 | 2227 Mbytes
Step Temp E_pair E_mol TotEng Press 
       0         1600   -905661.75            0      -852717     18703.74 
      50    780.37023    -878971.5            0   -853148.68    52325.512 
     100    798.91527   -879562.38            0   -853125.89    51436.903 
Loop time of 19.5582 on 1 procs for 100 steps with 256000 atoms

Performance: 2.209 ns/day, 10.866 hours/ns, 5.113 timesteps/s
50.0% CPU use with 1 MPI tasks x 1 OpenMP threads

MPI task timing breakdown:
Section |  min time  |  avg time  |  max time  |%varavg| %total
---------------------------------------------------------------
Pair    | 16.529     | 16.529     | 16.529     |   0.0 | 84.51
Neigh   | 1.6689     | 1.6689     | 1.6689     |   0.0 |  8.53
Comm    | 0.50768    | 0.50768    | 0.50768    |   0.0 |  2.60
Output  | 0.0012068  | 0.0012068  | 0.0012068  |   0.0 |  0.01
Modify  | 0.60559    | 0.60559    | 0.60559    |   0.0 |  3.10
Other   |            | 0.2461     |            |       |  1.26

Nlocal:         256000 ave      256000 max      256000 min
Histogram: 1 0 0 0 0 0 0 0 0 0
Nghost:          73245 ave       73245 max       73245 min
Histogram: 1 0 0 0 0 0 0 0 0 0
Neighs:     9.6582e+06 ave  9.6582e+06 max  9.6582e+06 min
Histogram: 1 0 0 0 0 0 0 0 0 0

Total # of neighbors = 9658204
Ave neighs/atom = 37.727359
Neighbor list builds = 15
Dangerous builds = 0
Total wall time: 0:00:20
Intel(R) VTune(TM) Profiler 2022.2.0 collection completed successfully. Use the "aps --report /home/ubuntu/lammps/bench/aps_result_20220531" command to generate textual and HTML reports for the profiling session.
