LAMMPS (7 Jan 2022)
  using 1 OpenMP thread(s) per MPI task
Lattice spacing in x,y,z = 3.615 3.615 3.615
Created orthogonal box = (0 0 0) to (289.2 289.2 289.2)
  1 by 2 by 2 MPI processor grid
Created 2048000 atoms
  using lattice units in orthogonal box = (0 0 0) to (289.2 289.2 289.2)
  create_atoms CPU = 0.097 seconds
Reading eam potential file Cu_u3.eam with DATE: 2007-06-11
----------------------------------------------------------
Using INTEL Package without Coprocessor.
Compiler: Intel Classic C++ 20.21.5 / Intel(R) C++ g++ 9.3 mode
SIMD compiler directives: Enabled
Precision: single
----------------------------------------------------------
Neighbor list info ...
  update every 1 steps, delay 5 steps, check yes
  max neighbors/atom: 2000, page size: 100000
  master list distance cutoff = 5.95
  ghost atom cutoff = 5.95
  binsize = 2.975, bins = 98 98 98
  1 neighbor lists, perpetual/occasional/extra = 1 0 0
  (1) pair eam/intel, perpetual
      attributes: half, newton on, intel
      pair build: half/bin/newton/intel
      stencil: half/bin/3d
      bin: intel
Setting up Verlet run ...
  Unit style    : metal
  Current step  : 0
  Time step     : 0.005
Per MPI rank memory allocation (min/avg/max) = 4445 | 4445 | 4445 Mbytes
Step Temp E_pair E_mol TotEng Press 
       0         1600   -7215617.5            0   -6792058.1    18703.846 
      50     780.8154   -7031815.9            0   -6825114.8    52291.365 
     100    798.21782   -7036402.5            0   -6825094.6     51479.48 
Loop time of 45.7936 on 4 procs for 100 steps with 2048000 atoms

Performance: 0.943 ns/day, 25.441 hours/ns, 2.184 timesteps/s
66.3% CPU use with 4 MPI tasks x 1 OpenMP threads

MPI task timing breakdown:
Section |  min time  |  avg time  |  max time  |%varavg| %total
---------------------------------------------------------------
Pair    | 27.347     | 31.493     | 35.644     |  73.6 | 68.77
Neigh   | 1.6526     | 2.4648     | 3.2804     |  51.6 |  5.38
Comm    | 4.9308     | 10.116     | 15.3       | 162.5 | 22.09
Output  | 0.0029033  | 0.0044417  | 0.0059835  |   2.3 |  0.01
Modify  | 0.53757    | 0.79202    | 1.0737     |  28.6 |  1.73
Other   |            | 0.9233     |            |       |  2.02

Nlocal:         512000 ave      512257 max      511721 min
Histogram: 1 0 0 0 1 1 0 0 0 1
Nghost:         120002 ave      120281 max      119739 min
Histogram: 1 0 0 0 1 1 0 0 0 1
Neighs:    1.93156e+07 ave 1.93357e+07 max 1.93036e+07 min
Histogram: 1 1 0 1 0 0 0 0 0 1

Total # of neighbors = 77262600
Ave neighs/atom = 37.725879
Neighbor list builds = 15
Dangerous builds = 0
Total wall time: 0:00:47
Intel(R) VTune(TM) Profiler 2022.2.0 collection completed successfully. Use the "aps --report /home/ubuntu/lammps/bench/aps_result_20220531" command to generate textual and HTML reports for the profiling session.
