LAMMPS (7 Jan 2022)
  using 1 OpenMP thread(s) per MPI task
Lattice spacing in x,y,z = 3.615 3.615 3.615
Created orthogonal box = (0 0 0) to (72.3 72.3 72.3)
  2 by 2 by 4 MPI processor grid
Created 32000 atoms
  using lattice units in orthogonal box = (0 0 0) to (72.3 72.3 72.3)
  create_atoms CPU = 0.002 seconds
Reading eam potential file Cu_u3.eam with DATE: 2007-06-11
----------------------------------------------------------
Using INTEL Package without Coprocessor.
Compiler: Intel Classic C++ 20.21.5 / Intel(R) C++ g++ 9.3 mode
SIMD compiler directives: Enabled
Precision: mixed
----------------------------------------------------------
Neighbor list info ...
  update every 1 steps, delay 5 steps, check yes
  max neighbors/atom: 2000, page size: 100000
  master list distance cutoff = 5.95
  ghost atom cutoff = 5.95
  binsize = 2.975, bins = 25 25 25
  1 neighbor lists, perpetual/occasional/extra = 1 0 0
  (1) pair eam/intel, perpetual
      attributes: half, newton on, intel
      pair build: half/bin/newton/intel
      stencil: half/bin/3d
      bin: intel
Setting up Verlet run ...
  Unit style    : metal
  Current step  : 0
  Time step     : 0.005
Per MPI rank memory allocation (min/avg/max) = 19 | 20.69 | 22.36 Mbytes
Step Temp E_pair E_mol TotEng Press 
       0         1600   -113279.97            0   -106662.06    18703.495 
      50    781.69067   -109873.35            0   -106640.12    52273.086 
     100    801.83209    -109957.3            0   -106640.76    51322.813 
     150    794.67661   -109927.53            0    -106640.6    51669.289 
     200    795.75208   -109932.04            0   -106640.66    51628.951 
     250    797.58388   -109939.57            0    -106640.6    51564.195 
     300    793.23397    -109921.5            0   -106640.53    51741.348 
     350    799.19259    -109946.3            0   -106640.68    51461.986 
     400    797.16526   -109937.83            0    -106640.6    51585.725 
     450    794.86287   -109928.11            0    -106640.4    51651.544 
     500    796.77864   -109936.18            0   -106640.54    51565.407 
     550    796.68616   -109935.87            0   -106640.62    51580.901 
     600    799.55086   -109947.78            0   -106640.68    51434.162 
     650    800.85094   -109953.14            0   -106640.67    51407.543 
     700     791.7351    -109915.1            0   -106640.33    51729.919 
     750      801.425   -109955.58            0   -106640.73    51341.036 
     800    797.90977   -109940.72            0   -106640.41    51528.343 
     850    803.69955    -109964.9            0   -106640.64    51322.001 
     900    805.39249   -109971.97            0   -106640.71    51275.907 
     950    799.24629   -109946.28            0   -106640.45    51489.113 
    1000    796.30531   -109933.88            0   -106640.21    51607.282 
    1050    793.64937   -109922.95            0   -106640.26    51683.804 
    1100    800.68541   -109952.05            0   -106640.26    51462.171 
    1150    795.81078   -109931.94            0   -106640.31    51540.848 
    1200    798.38061   -109942.71            0   -106640.45    51468.283 
    1250    800.68301   -109952.14            0   -106640.36    51434.639 
    1300    796.74456   -109935.75            0   -106640.25    51586.039 
    1350    797.90622   -109940.73            0   -106640.43    51534.817 
    1400     801.6009      -109956            0   -106640.43    51409.537 
    1450    797.32911   -109938.07            0   -106640.16    51543.089 
    1500    795.65422   -109931.15            0   -106640.17    51628.874 
    1550    799.27802   -109946.23            0   -106640.26    51474.163 
    1600    793.51386   -109922.25            0   -106640.12     51728.94 
    1650    799.31007   -109946.47            0   -106640.37    51425.918 
    1700    799.80878   -109948.52            0   -106640.35     51451.72 
    1750    797.60612   -109939.35            0    -106640.3     51558.36 
    1800    797.84349   -109940.49            0   -106640.46    51516.034 
    1850    795.50895   -109930.58            0    -106640.2    51539.227 
    1900    798.91715   -109944.78            0   -106640.31    51446.116 
    1950    804.34554   -109967.32            0   -106640.39    51284.686 
    2000    795.23451    -109929.4            0   -106640.16    51597.364 
    2050    794.59366   -109926.76            0   -106640.16    51665.281 
    2100    800.40333   -109951.09            0   -106640.46    51409.736 
    2150    798.46768   -109942.89            0   -106640.27    51462.569 
    2200    799.75073   -109948.23            0    -106640.3    51513.716 
    2250    797.50093   -109938.84            0   -106640.22    51503.478 
    2300    799.75184   -109948.38            0   -106640.45    51427.993 
    2350    794.70549   -109927.34            0   -106640.29    51661.298 
    2400    792.94613      -109920            0   -106640.22    51736.345 
    2450    797.97952   -109941.03            0   -106640.43    51510.566 
    2500    796.10428   -109933.11            0   -106640.27    51549.307 
    2550    797.15835   -109937.45            0   -106640.25    51535.354 
    2600    797.05931   -109937.18            0   -106640.38    51576.658 
    2650     794.8119   -109927.71            0   -106640.22     51650.56 
    2700    790.24552   -109908.55            0   -106639.94    51873.345 
    2750    798.13553   -109941.49            0   -106640.25    51573.109 
    2800    798.09139   -109941.52            0   -106640.46    51528.119 
    2850    798.66734   -109943.77            0   -106640.32    51465.745 
    2900    795.94543   -109932.44            0   -106640.26    51655.279 
    2950    797.80799   -109940.24            0   -106640.35    51566.399 
    3000    795.15351   -109929.19            0   -106640.28    51630.284 
    3050    798.77219   -109944.26            0   -106640.38    51461.906 
    3100    794.01708   -109924.37            0   -106640.16    51701.111 
    3150    796.39973   -109934.23            0   -106640.16     51616.79 
    3200    796.30093   -109933.95            0   -106640.29    51591.029 
    3250    797.68955   -109939.73            0   -106640.33    51569.901 
    3300    798.04074   -109941.21            0   -106640.36    51546.198 
    3350    798.43236    -109942.8            0   -106640.33    51487.321 
    3400    789.86157   -109907.02            0   -106639.99    51884.329 
    3450    796.48967    -109934.7            0   -106640.27    51618.319 
    3500    797.86331    -109940.3            0   -106640.18    51560.742 
    3550    797.98844   -109940.83            0    -106640.2    51619.872 
    3600    801.48875   -109955.46            0   -106640.34    51384.969 
    3650    799.24322   -109946.09            0   -106640.26    51472.924 
    3700    799.32463   -109946.42            0   -106640.25    51470.731 
    3750    802.85682   -109961.15            0   -106640.37    51373.497 
    3800    801.13685   -109954.03            0   -106640.37    51418.659 
    3850    799.53801   -109947.27            0   -106640.23    51468.851 
    3900    801.46231    -109955.3            0    -106640.3    51384.731 
    3950    803.97801   -109965.68            0   -106640.27    51356.632 
    4000    797.81194    -109940.1            0    -106640.2    51561.904 
    4050    799.70329   -109947.94            0   -106640.21    51489.186 
    4100    793.92227   -109923.93            0   -106640.12    51655.123 
    4150    800.46949   -109951.15            0   -106640.25    51447.837 
    4200    799.12723   -109945.56            0   -106640.21    51454.088 
    4250    799.99934   -109949.01            0   -106640.06     51481.49 
    4300    799.21207   -109945.98            0   -106640.28    51481.035 
    4350    799.25763   -109946.22            0   -106640.34    51445.172 
    4400    795.58502   -109930.82            0   -106640.12    51593.004 
    4450    796.88871   -109936.21            0   -106640.13    51537.174 
    4500    799.37826   -109946.67            0   -106640.28    51423.686 
    4550    795.65144   -109931.06            0   -106640.09    51630.916 
    4600    802.48567   -109959.57            0   -106640.33    51388.281 
    4650    801.76389   -109956.57            0   -106640.32    51395.236 
    4700     799.1899   -109945.88            0   -106640.28    51480.161 
    4750    799.26923    -109946.1            0   -106640.17    51547.313 
    4800    794.97262   -109928.21            0   -106640.05    51638.516 
    4850    797.07761   -109936.92            0   -106640.05    51594.208 
    4900    798.34196   -109942.23            0   -106640.13    51565.193 
    4950    798.19715   -109941.65            0   -106640.15    51554.404 
    5000    797.15567   -109937.35            0   -106640.16    51563.444 
    5050    804.76646   -109969.11            0   -106640.44    51209.144 
    5100    797.64005   -109939.32            0   -106640.12    51581.879 
    5150    802.82588   -109961.11            0   -106640.47    51331.866 
    5200     801.1592    -109954.1            0   -106640.35    51464.603 
    5250    800.76462   -109952.22            0    -106640.1    51454.261 
    5300    798.44463    -109942.8            0   -106640.28    51521.905 
    5350    796.98536   -109936.58            0   -106640.09    51554.182 
    5400    796.47537   -109934.39            0   -106640.02    51593.887 
    5450    796.09873   -109932.87            0   -106640.05    51563.733 
    5500    797.45757    -109938.6            0   -106640.15    51593.646 
    5550    792.65791   -109918.67            0   -106640.08     51737.38 
    5600    796.08759   -109932.95            0   -106640.18    51596.827 
    5650     796.2839   -109933.77            0   -106640.18    51637.344 
    5700    802.20715   -109958.41            0   -106640.33    51377.886 
    5750    804.49943   -109967.96            0   -106640.39    51251.587 
    5800    800.18676    -109949.9            0   -106640.17    51459.283 
    5850     797.7309   -109939.62            0   -106640.04    51505.256 
    5900    796.41426   -109934.15            0   -106640.03     51606.82 
    5950    804.01477   -109965.93            0   -106640.37    51288.537 
    6000    798.32956   -109942.08            0   -106640.03    51523.984 
    6050    796.63726   -109935.06            0   -106640.02    51632.805 
    6100    800.41905   -109950.92            0   -106640.23    51475.325 
    6150    795.67281   -109931.22            0   -106640.16    51610.984 
    6200    797.90003   -109940.31            0   -106640.04    51565.353 
    6250    795.10384   -109928.62            0   -106639.91    51651.778 
    6300    797.03449   -109936.67            0   -106639.98    51577.003 
    6350    797.73257   -109939.73            0   -106640.15    51533.557 
    6400    799.19218   -109945.65            0   -106640.04    51534.407 
    6450    796.47092   -109934.37            0   -106640.01    51599.138 
    6500    793.93832   -109923.86            0   -106639.98    51670.608 
    6550    802.64397   -109960.01            0   -106640.12    51342.697 
    6600    799.49074   -109946.85            0      -106640    51538.508 
    6650    800.41608   -109950.73            0   -106640.06     51436.68 
    6700     796.3943   -109934.06            0   -106640.02     51608.53 
    6750    798.97105   -109944.74            0   -106640.04    51530.941 
    6800    798.82496   -109944.15            0   -106640.05     51540.46 
    6850     801.0848    -109953.5            0   -106640.06    51408.346 
    6900    794.69373   -109927.09            0   -106640.08    51633.526 
    6950    798.30636   -109941.91            0   -106639.96    51511.968 
    7000    798.42746   -109942.45            0      -106640    51491.205 
    7050    798.61001   -109943.07            0   -106639.87    51503.715 
    7100     795.0459    -109928.3            0   -106639.83    51615.448 
    7150    802.14586   -109958.02            0   -106640.18    51343.571 
    7200     793.5753   -109922.18            0   -106639.79    51721.836 
    7250    798.24702   -109941.62            0   -106639.91    51510.797 
    7300     794.2004    -109924.8            0   -106639.84    51737.924 
    7350    799.80924   -109948.11            0   -106639.94    51497.601 
    7400    796.56055   -109934.52            0   -106639.79    51602.544 
    7450     796.0143   -109932.21            0   -106639.74    51564.688 
    7500    800.41949    -109950.6            0   -106639.91    51431.947 
    7550    799.95486   -109948.62            0   -106639.85    51409.052 
    7600    794.70416   -109926.75            0   -106639.69    51681.076 
    7650    798.00617   -109940.52            0   -106639.81    51500.322 
    7700    798.33476    -109941.8            0   -106639.73    51502.502 
    7750    797.82904    -109939.7            0   -106639.73    51546.589 
    7800    798.87967   -109944.19            0   -106639.87    51488.962 
    7850    798.06774   -109940.83            0   -106639.87     51612.65 
    7900    798.63679   -109943.02            0    -106639.7      51534.7 
    7950    797.29794   -109937.45            0   -106639.67    51609.479 
    8000    798.72054   -109943.46            0    -106639.8    51496.638 
    8050    798.97629   -109944.36            0   -106639.64    51516.516 
    8100    797.60465   -109938.78            0   -106639.73    51551.012 
    8150    799.29229   -109945.82            0   -106639.79    51483.632 
    8200    795.81935   -109931.18            0   -106639.51    51691.444 
    8250    802.64295   -109959.62            0   -106639.73    51340.412 
    8300    799.66731   -109947.38            0    -106639.8    51433.509 
    8350    794.89846   -109927.57            0   -106639.72    51670.085 
    8400     799.1446   -109945.14            0   -106639.72    51473.314 
    8450    793.37107   -109921.07            0   -106639.54    51731.678 
    8500    799.33395   -109945.96            0   -106639.76    51496.631 
    8550    800.28163   -109949.85            0   -106639.73    51400.258 
    8600     803.0909   -109961.54            0    -106639.8    51337.428 
    8650    800.42632   -109950.48            0   -106639.76    51455.077 
    8700    801.90713   -109956.47            0   -106639.62    51376.927 
    8750    793.66705   -109922.33            0   -106639.56    51674.668 
    8800     803.9066   -109965.08            0   -106639.97    51284.125 
    8850    798.83268   -109943.82            0   -106639.69    51508.692 
    8900    796.52015   -109934.23            0   -106639.67    51615.628 
    8950    803.49817   -109963.35            0   -106639.92     51272.81 
    9000    803.20067   -109962.17            0   -106639.97    51304.977 
    9050    798.28634   -109941.69            0   -106639.82    51468.465 
    9100    794.06474   -109924.25            0   -106639.85      51695.9 
    9150    797.67221   -109939.23            0    -106639.9    51551.592 
    9200    800.72357   -109951.87            0   -106639.92    51430.783 
    9250    798.15731   -109941.21            0   -106639.87    51462.124 
    9300     798.1518   -109941.21            0    -106639.9     51601.55 
    9350    802.72735   -109960.27            0   -106640.03    51284.691 
    9400    796.01556   -109932.12            0   -106639.65    51684.323 
    9450    797.63827   -109939.01            0   -106639.82    51515.558 
    9500    798.09054   -109940.92            0   -106639.86    51532.091 
    9550    798.00456   -109940.52            0   -106639.82    51536.197 
    9600    798.31683   -109941.92            0   -106639.92    51534.849 
    9650     800.6692   -109951.68            0   -106639.95    51429.971 
    9700    793.74564   -109922.82            0   -106639.74    51724.063 
    9750    796.02104   -109932.33            0   -106639.83    51557.303 
    9800     794.5999   -109926.33            0   -106639.71    51663.867 
    9850    794.89156   -109927.56            0   -106639.73     51601.94 
    9900    801.54401    -109955.3            0   -106639.95    51397.914 
    9950    800.02314   -109949.11            0   -106640.06      51435.9 
   10000    796.17769   -109933.07            0   -106639.92    51584.352 
Loop time of 9.40303 on 16 procs for 10000 steps with 32000 atoms

Performance: 459.426 ns/day, 0.052 hours/ns, 1063.487 timesteps/s
97.9% CPU use with 16 MPI tasks x 1 OpenMP threads

MPI task timing breakdown:
Section |  min time  |  avg time  |  max time  |%varavg| %total
---------------------------------------------------------------
Pair    | 7.2579     | 7.4236     | 7.5262     |   2.6 | 78.95
Neigh   | 0.74482    | 0.79416    | 0.83702    |   2.5 |  8.45
Comm    | 0.81246    | 0.94962    | 1.1467     |   8.9 | 10.10
Output  | 0.004367   | 0.0046464  | 0.005357   |   0.3 |  0.05
Modify  | 0.13251    | 0.13804    | 0.1437     |   0.8 |  1.47
Other   |            | 0.09295    |            |       |  0.99

Nlocal:           2000 ave        2036 max        1963 min
Histogram: 2 1 1 3 1 0 2 2 3 1
Nghost:        4195.75 ave        4232 max        4159 min
Histogram: 1 3 1 2 1 0 4 1 1 2
Neighs:        75486.5 ave       77067 max       74060 min
Histogram: 2 0 2 4 0 1 3 2 1 1

Total # of neighbors = 1207784
Ave neighs/atom = 37.74325
Neighbor list builds = 1421
Dangerous builds = 2
Total wall time: 0:00:09
Intel(R) VTune(TM) Profiler 2022.2.0 collection completed successfully. Use the "aps --report /home/ubuntu/lammps/bench/aps_result_20220703" command to generate textual and HTML reports for the profiling session.
