LAMMPS (7 Jan 2022)
  using 1 OpenMP thread(s) per MPI task
Lattice spacing in x,y,z = 3.615 3.615 3.615
Created orthogonal box = (0 0 0) to (144.6 144.6 144.6)
  1 by 1 by 1 MPI processor grid
Created 256000 atoms
  using lattice units in orthogonal box = (0 0 0) to (144.6 144.6 144.6)
  create_atoms CPU = 0.042 seconds
Reading eam potential file Cu_u3.eam with DATE: 2007-06-11
----------------------------------------------------------
Using INTEL Package without Coprocessor.
Compiler: Intel Classic C++ 20.21.5 / Intel(R) C++ g++ 9.3 mode
SIMD compiler directives: Enabled
Precision: double
----------------------------------------------------------
Neighbor list info ...
  update every 1 steps, delay 5 steps, check yes
  max neighbors/atom: 2000, page size: 100000
  master list distance cutoff = 5.95
  ghost atom cutoff = 5.95
  binsize = 2.975, bins = 49 49 49
  1 neighbor lists, perpetual/occasional/extra = 1 0 0
  (1) pair eam/intel, perpetual
      attributes: half, newton on, intel
      pair build: half/bin/newton/intel
      stencil: half/bin/3d
      bin: intel
Setting up Verlet run ...
  Unit style    : metal
  Current step  : 0
  Time step     : 0.005
Per MPI rank memory allocation (min/avg/max) = 2238 | 2238 | 2238 Mbytes
Step Temp E_pair E_mol TotEng Press 
       0         1600      -906240            0   -853295.25    18704.085 
      50    780.37025   -878942.76            0   -853119.94    52325.542 
     100    798.91514   -879560.79            0   -853124.32    51436.878 
Loop time of 9.80874 on 1 procs for 100 steps with 256000 atoms

Performance: 4.404 ns/day, 5.449 hours/ns, 10.195 timesteps/s
100.0% CPU use with 1 MPI tasks x 1 OpenMP threads

MPI task timing breakdown:
Section |  min time  |  avg time  |  max time  |%varavg| %total
---------------------------------------------------------------
Pair    | 8.2146     | 8.2146     | 8.2146     |   0.0 | 83.75
Neigh   | 0.94769    | 0.94769    | 0.94769    |   0.0 |  9.66
Comm    | 0.26876    | 0.26876    | 0.26876    |   0.0 |  2.74
Output  | 0.0012375  | 0.0012375  | 0.0012375  |   0.0 |  0.01
Modify  | 0.27455    | 0.27455    | 0.27455    |   0.0 |  2.80
Other   |            | 0.1019     |            |       |  1.04

Nlocal:         256000 ave      256000 max      256000 min
Histogram: 1 0 0 0 0 0 0 0 0 0
Nghost:          73245 ave       73245 max       73245 min
Histogram: 1 0 0 0 0 0 0 0 0 0
Neighs:     9.6582e+06 ave  9.6582e+06 max  9.6582e+06 min
Histogram: 1 0 0 0 0 0 0 0 0 0

Total # of neighbors = 9658204
Ave neighs/atom = 37.727359
Neighbor list builds = 15
Dangerous builds = 0
Total wall time: 0:00:10
Intel(R) VTune(TM) Profiler 2022.2.0 collection completed successfully. Use the "aps --report /home/ubuntu/lammps/bench/aps_result_20220601" command to generate textual and HTML reports for the profiling session.
