LAMMPS (7 Jan 2022)
  using 1 OpenMP thread(s) per MPI task
New timer settings: style=full  mode=nosync  timeout=off
Lattice spacing in x,y,z = 3.615 3.615 3.615
Created orthogonal box = (0 0 0) to (216.9 216.9 216.9)
  2 by 2 by 2 MPI processor grid
Created 864000 atoms
  using lattice units in orthogonal box = (0 0 0) to (216.9 216.9 216.9)
  create_atoms CPU = 0.026 seconds
Reading eam potential file Cu_u3.eam with DATE: 2007-06-11
----------------------------------------------------------
Using INTEL Package without Coprocessor.
Compiler: Intel Classic C++ 20.21.5 / Intel(R) C++ g++ 9.3 mode
SIMD compiler directives: Enabled
Precision: mixed
----------------------------------------------------------
Neighbor list info ...
  update every 1 steps, delay 5 steps, check yes
  max neighbors/atom: 2000, page size: 100000
  master list distance cutoff = 5.95
  ghost atom cutoff = 5.95
  binsize = 2.975, bins = 73 73 73
  1 neighbor lists, perpetual/occasional/extra = 1 0 0
  (1) pair eam/intel, perpetual
      attributes: half, newton on, intel
      pair build: half/bin/newton/intel
      stencil: half/bin/3d
      bin: intel
Setting up Verlet run ...
  Unit style    : metal
  Current step  : 0
  Time step     : 0.005
Per MPI rank memory allocation (min/avg/max) = 946.3 | 946.3 | 946.3 Mbytes
Step Temp E_pair E_mol TotEng Press 
       0         1600   -3058559.2            0   -2879870.1    18704.286 
      50    780.51283   -2966447.5            0   -2879279.4    52309.312 
     100    798.57095   -2968476.9            0     -2879292    51460.462 
Loop time of 5.33566 on 8 procs for 100 steps with 864000 atoms

Performance: 8.096 ns/day, 2.964 hours/ns, 18.742 timesteps/s
97.3% CPU use with 8 MPI tasks x 1 OpenMP threads

MPI task timing breakdown:
Section |  min time  |  avg time  |  max time  |%varavg|  %CPU | %total
-----------------------------------------------------------------------
Pair    | 4.2009     | 4.2443     | 4.4095     |   3.3 |  98.3 | 79.55
Neigh   | 0.39318    | 0.40556    | 0.44045    |   2.3 |  99.3 |  7.60
Comm    | 0.24625    | 0.45537    | 0.51318    |  13.1 |  86.9 |  8.53
Output  | 0.00066522 | 0.00070042 | 0.00072962 |   0.0 | 100.0 |  0.01
Modify  | 0.15375    | 0.16245    | 0.1742     |   1.7 |  95.5 |  3.04
Other   |            | 0.0673     |            |       |       |  1.26

Nlocal:         108000 ave      108184 max      107816 min
Histogram: 1 0 0 1 2 2 1 0 0 1
Nghost:        42378.4 ave       42563 max       42195 min
Histogram: 1 0 0 1 2 2 1 0 0 1
Neighs:    4.07446e+06 ave 4.08264e+06 max 4.06632e+06 min
Histogram: 1 0 0 1 3 2 0 0 0 1

Total # of neighbors = 32595640
Ave neighs/atom = 37.726435
Neighbor list builds = 15
Dangerous builds = 0
Total wall time: 0:00:05
Intel(R) VTune(TM) Profiler 2022.2.0 collection completed successfully. Use the "aps --report /home/ubuntu/lammps/bench/aps_result_20220519" command to generate textual and HTML reports for the profiling session.
