LAMMPS (7 Jan 2022)
  using 1 OpenMP thread(s) per MPI task
Lattice spacing in x,y,z = 3.615 3.615 3.615
Created orthogonal box = (0 0 0) to (72.3 72.3 72.3)
  2 by 2 by 4 MPI processor grid
Created 32000 atoms
  using lattice units in orthogonal box = (0 0 0) to (72.3 72.3 72.3)
  create_atoms CPU = 0.002 seconds
Reading eam potential file Cu_u3.eam with DATE: 2007-06-11
----------------------------------------------------------
Using INTEL Package without Coprocessor.
Compiler: Intel Classic C++ 20.21.5 / Intel(R) C++ g++ 9.3 mode
SIMD compiler directives: Enabled
Precision: double
----------------------------------------------------------
Neighbor list info ...
  update every 1 steps, delay 5 steps, check yes
  max neighbors/atom: 2000, page size: 100000
  master list distance cutoff = 5.95
  ghost atom cutoff = 5.95
  binsize = 2.975, bins = 25 25 25
  1 neighbor lists, perpetual/occasional/extra = 1 0 0
  (1) pair eam/intel, perpetual
      attributes: half, newton on, intel
      pair build: half/bin/newton/intel
      stencil: half/bin/3d
      bin: intel
Setting up Verlet run ...
  Unit style    : metal
  Current step  : 0
  Time step     : 0.005
Per MPI rank memory allocation (min/avg/max) = 19.11 | 20.8 | 22.46 Mbytes
Step Temp E_pair E_mol TotEng Press 
       0         1600      -113280            0   -106662.09    18703.573 
      50    781.69049   -109873.35            0   -106640.13    52273.088 
     100      801.832    -109957.3            0   -106640.77    51322.821 
Loop time of 0.124504 on 16 procs for 100 steps with 32000 atoms

Performance: 346.978 ns/day, 0.069 hours/ns, 803.190 timesteps/s
94.4% CPU use with 16 MPI tasks x 1 OpenMP threads

MPI task timing breakdown:
Section |  min time  |  avg time  |  max time  |%varavg| %total
---------------------------------------------------------------
Pair    | 0.090822   | 0.092008   | 0.095566   |   0.4 | 73.90
Neigh   | 0.0090792  | 0.0093552  | 0.0098577  |   0.2 |  7.51
Comm    | 0.015198   | 0.018914   | 0.020534   |   1.0 | 15.19
Output  | 9.2764e-05 | 0.00010045 | 0.00011548 |   0.0 |  0.08
Modify  | 0.0021326  | 0.0023233  | 0.0025909  |   0.3 |  1.87
Other   |            | 0.001803   |            |       |  1.45

Nlocal:           2000 ave        2032 max        1967 min
Histogram: 1 1 2 1 4 1 1 3 0 2
Nghost:         4195.5 ave        4229 max        4164 min
Histogram: 2 0 3 1 1 2 3 2 1 1
Neighs:        75486.5 ave       76891 max       74215 min
Histogram: 3 1 0 3 2 1 2 2 1 1

Total # of neighbors = 1207784
Ave neighs/atom = 37.74325
Neighbor list builds = 13
Dangerous builds = 0
Total wall time: 0:00:00
Intel(R) VTune(TM) Profiler 2022.2.0 collection completed successfully. Use the "aps --report /home/ubuntu/lammps/bench/aps_result_20220601" command to generate textual and HTML reports for the profiling session.
