LAMMPS (7 Jan 2022)
  using 1 OpenMP thread(s) per MPI task
Lattice spacing in x,y,z = 3.615 3.615 3.615
Created orthogonal box = (0 0 0) to (72.3 72.3 72.3)
  2 by 4 by 4 MPI processor grid
Created 32000 atoms
  using lattice units in orthogonal box = (0 0 0) to (72.3 72.3 72.3)
  create_atoms CPU = 0.001 seconds
Reading eam potential file Cu_u3.eam with DATE: 2007-06-11
----------------------------------------------------------
Using INTEL Package without Coprocessor.
Compiler: Intel Classic C++ 20.21.5 / Intel(R) C++ g++ 9.3 mode
SIMD compiler directives: Enabled
Precision: mixed
----------------------------------------------------------
Neighbor list info ...
  update every 1 steps, delay 5 steps, check yes
  max neighbors/atom: 2000, page size: 100000
  master list distance cutoff = 5.95
  ghost atom cutoff = 5.95
  binsize = 2.975, bins = 25 25 25
  1 neighbor lists, perpetual/occasional/extra = 1 0 0
  (1) pair eam/intel, perpetual
      attributes: half, newton on, intel
      pair build: half/bin/newton/intel
      stencil: half/bin/3d
      bin: intel
Setting up Verlet run ...
  Unit style    : metal
  Current step  : 0
  Time step     : 0.005
Per MPI rank memory allocation (min/avg/max) = 10.47 | 12.07 | 13.83 Mbytes
Step Temp E_pair E_mol TotEng Press 
       0         1600   -113279.97            0   -106662.06    18703.495 
      50    781.69067   -109873.35            0   -106640.12    52273.084 
     100    801.83215    -109957.3            0   -106640.76    51322.817 
     150     794.6768   -109927.53            0   -106640.59    51669.274 
     200    795.75185   -109932.04            0   -106640.66    51628.927 
     250    797.58418   -109939.57            0    -106640.6    51564.224 
     300    793.23444    -109921.5            0   -106640.53    51741.338 
     350    799.19371    -109946.3            0   -106640.68     51461.97 
     400    797.16429   -109937.82            0   -106640.59    51585.795 
     450    794.86219    -109928.1            0    -106640.4    51651.517 
     500    796.78172   -109936.19            0   -106640.54    51565.299 
     550    796.68354   -109935.85            0   -106640.61    51581.097 
     600    799.55033   -109947.78            0   -106640.68    51434.094 
     650    800.85182   -109953.14            0   -106640.66    51407.583 
     700    791.73988   -109915.12            0   -106640.33    51729.834 
     750    801.42811   -109955.59            0   -106640.73    51340.811 
     800    797.91071   -109940.73            0   -106640.41    51527.623 
     850    803.70225   -109964.92            0   -106640.65    51322.372 
     900    805.39761      -109972            0   -106640.71    51275.767 
     950    799.23657   -109946.24            0   -106640.45    51489.522 
    1000    796.29922   -109933.86            0   -106640.21    51608.106 
    1050    793.66271   -109923.02            0   -106640.28    51682.914 
    1100    800.65374   -109951.95            0   -106640.29    51462.811 
    1150    795.82923   -109932.05            0   -106640.34    51539.681 
    1200    798.36466   -109942.69            0    -106640.5    51466.714 
    1250    800.71648    -109952.3            0   -106640.38    51430.014 
    1300    796.75601   -109935.82            0   -106640.28    51585.249 
    1350    797.77568    -109940.2            0   -106640.44    51538.199 
    1400     801.6208   -109956.11            0   -106640.45    51409.222 
    1450    797.29507   -109937.91            0   -106640.14    51542.425 
    1500    795.72084   -109931.45            0   -106640.19    51621.763 
    1550    799.33993   -109946.52            0   -106640.29     51471.97 
    1600     794.0412   -109924.44            0   -106640.13    51714.811 
    1650    799.50506    -109947.3            0   -106640.39    51424.753 
    1700    799.87504   -109948.81            0   -106640.37    51468.254 
    1750    798.25309   -109942.03            0    -106640.3    51550.698 
    1800    796.64469   -109935.31            0   -106640.23    51577.008 
    1850    794.14234   -109924.86            0   -106640.14     51637.03 
    1900    800.77956   -109952.48            0    -106640.3    51429.164 
    1950    802.34206   -109958.98            0   -106640.34    51379.914 
    2000    792.36795   -109917.39            0      -106640    51740.469 
    2050    802.16334   -109958.22            0   -106640.31    51378.643 
    2100    797.24987    -109937.7            0   -106640.12    51556.004 
    2150    802.32976   -109959.03            0   -106640.44    51343.595 
    2200    798.09383   -109941.23            0   -106640.15    51519.345 
    2250    796.41559   -109934.15            0   -106640.02    51626.119 
    2300    794.74794   -109927.31            0   -106640.08    51668.305 
    2350    797.83517   -109940.12            0   -106640.12    51540.544 
    2400    794.65072   -109926.75            0   -106639.91    51761.432 
    2450    796.84329   -109936.02            0   -106640.12     51603.18 
    2500    803.10876   -109962.08            0   -106640.26    51390.145 
    2550    795.65793   -109931.02            0   -106640.02    51635.988 
    2600    800.10479   -109949.59            0    -106640.2    51422.638 
    2650    796.95165   -109936.41            0   -106640.06    51580.917 
    2700    796.42995   -109934.31            0   -106640.12     51629.62 
    2750    801.17313   -109954.08            0   -106640.27    51376.251 
    2800     796.2457   -109933.64            0   -106640.21    51593.716 
    2850    798.84137   -109944.45            0   -106640.29     51464.68 
    2900    799.29544   -109946.12            0   -106640.08    51517.615 
    2950    798.68079   -109943.58            0   -106640.08      51525.6 
    3000    797.28432   -109937.62            0    -106639.9    51613.105 
    3050    798.09201   -109941.07            0   -106640.01    51541.457 
    3100    799.19091   -109945.64            0   -106640.03    51477.064 
    3150    797.91963   -109940.37            0   -106640.02    51532.593 
    3200    799.90385   -109948.68            0   -106640.12    51453.571 
    3250    797.08305   -109936.98            0   -106640.09    51552.494 
    3300    797.26522   -109937.84            0   -106640.19    51592.665 
    3350     801.6716   -109955.98            0   -106640.11      51397.3 
    3400    792.81281   -109919.19            0   -106639.96    51732.255 
    3450    795.37294   -109929.88            0   -106640.06     51618.72 
    3500     794.8853   -109927.86            0   -106640.06    51648.293 
    3550    798.55695   -109943.15            0   -106640.17    51481.597 
    3600    801.37119   -109954.83            0    -106640.2    51399.925 
    3650    795.46499   -109930.34            0   -106640.14    51685.702 
    3700    800.89463   -109952.83            0   -106640.17    51411.825 
    3750    796.58737   -109935.01            0   -106640.17     51583.27 
    3800    797.18861   -109937.61            0   -106640.28    51603.693 
    3850    796.91291   -109936.36            0   -106640.18    51596.789 
    3900    799.86002   -109948.72            0   -106640.34    51460.241 
    3950    797.84509   -109940.12            0   -106640.08    51543.186 
    4000     796.9746   -109936.63            0   -106640.19    51562.238 
    4050    797.91891    -109940.5            0   -106640.15    51557.832 
    4100    801.27771   -109954.51            0   -106640.27    51388.833 
    4150    796.50758   -109934.58            0   -106640.07    51584.949 
    4200    797.09558    -109937.1            0   -106640.15    51557.124 
    4250    797.29833   -109938.08            0    -106640.3    51575.012 
    4300     801.9935   -109957.32            0   -106640.12    51413.458 
    4350    801.05253   -109953.35            0   -106640.04    51455.008 
    4400    797.29627   -109937.78            0      -106640    51590.269 
    4450    799.27149   -109946.11            0   -106640.17    51505.532 
    4500     793.4206   -109921.76            0   -106640.01    51705.034 
    4550    795.34587   -109929.69            0   -106639.99    51635.881 
    4600    798.89075   -109944.53            0   -106640.16    51505.523 
    4650    798.98007   -109944.94            0    -106640.2     51434.25 
    4700    800.26712   -109950.22            0   -106640.15     51490.57 
    4750    796.17416   -109933.04            0   -106639.91    51646.712 
    4800    799.26801   -109946.03            0    -106640.1    51460.594 
    4850    794.89274   -109927.82            0   -106639.99     51622.01 
    4900    795.20462   -109929.06            0   -106639.94     51697.41 
    4950    797.80076   -109939.99            0   -106640.14    51573.081 
    5000    798.93399   -109944.86            0   -106640.31    51466.269 
    5050    799.58305   -109947.34            0   -106640.11    51489.939 
    5100    792.26987   -109916.96            0   -106639.98    51811.239 
    5150    797.30496   -109937.91            0    -106640.1    51535.104 
    5200    799.43076   -109946.72            0   -106640.12    51445.026 
    5250     791.7269   -109914.62            0   -106639.88     51775.09 
    5300    798.06961   -109941.07            0    -106640.1    51513.826 
    5350    797.18137    -109937.4            0    -106640.1    51593.186 
    5400    797.06572   -109936.93            0   -106640.11    51577.165 
    5450    797.01943   -109936.61            0   -106639.98    51568.148 
    5500    797.96395   -109940.65            0   -106640.12    51528.937 
    5550    796.65122   -109935.15            0   -106640.04    51569.352 
    5600    794.47822   -109926.14            0   -106640.02    51689.383 
    5650    799.05052   -109945.06            0   -106640.03    51443.852 
    5700    798.16448   -109941.24            0   -106639.88    51532.393 
    5750    796.26012    -109933.5            0   -106640.01    51599.618 
    5800    797.01661   -109936.56            0   -106639.94    51601.275 
    5850    799.37028   -109946.34            0   -106639.99    51494.097 
    5900    799.28798   -109945.93            0   -106639.92    51481.672 
    5950    792.54585   -109917.79            0   -106639.66    51762.254 
    6000    798.54035   -109942.85            0   -106639.93    51470.264 
    6050    795.96726   -109932.03            0   -106639.75    51546.168 
    6100     797.3703   -109937.97            0   -106639.89    51560.288 
    6150    797.66957   -109939.18            0   -106639.87    51536.832 
    6200     798.5266   -109942.67            0   -106639.81    51516.059 
    6250     797.0195   -109936.44            0   -106639.81    51589.674 
    6300    795.15538   -109928.73            0   -106639.82    51650.306 
    6350    794.30482   -109925.12            0   -106639.72    51713.075 
    6400    797.49973   -109938.56            0   -106639.95    51509.144 
    6450    801.21083   -109953.88            0   -106639.92    51382.236 
    6500    796.13642   -109932.84            0   -106639.87    51580.597 
    6550    797.54174   -109938.66            0   -106639.87    51556.339 
    6600     803.0641   -109961.66            0   -106640.03    51343.506 
    6650    799.55942   -109947.03            0   -106639.89    51462.066 
    6700    797.24916   -109937.48            0    -106639.9    51512.307 
    6750    793.26501   -109920.81            0   -106639.71     51742.92 
    6800    796.07553    -109932.5            0   -106639.77     51615.46 
    6850    799.56027   -109947.07            0   -106639.93    51513.897 
    6900    798.21363   -109941.45            0   -106639.88    51531.748 
    6950    796.45091   -109933.98            0    -106639.7    51595.809 
    7000    795.93587   -109931.97            0   -106639.82    51627.586 
    7050    800.13796   -109949.43            0   -106639.91    51463.701 
    7100    801.05082   -109953.27            0   -106639.97    51459.047 
    7150    793.22581   -109920.73            0    -106639.8    51756.242 
    7200    801.26407   -109954.09            0    -106639.9    51444.051 
    7250    797.29877   -109937.71            0   -106639.92    51569.487 
    7300      796.453   -109934.09            0   -106639.81    51550.437 
    7350    792.88392   -109919.13            0   -106639.61    51721.152 
    7400    800.98265   -109952.78            0   -106639.75    51429.444 
    7450    793.94537   -109923.43            0   -106639.52    51727.694 
    7500    804.08665   -109965.73            0   -106639.87    51305.039 
    7550    798.10093   -109940.76            0   -106639.66    51557.592 
    7600    797.07461   -109936.34            0   -106639.48    51630.426 
    7650    802.13359   -109957.64            0   -106639.86    51333.007 
    7700    798.60389   -109942.98            0   -106639.79    51504.216 
    7750    796.54209   -109934.32            0   -106639.67    51561.013 
    7800    800.42259   -109950.53            0   -106639.82    51394.083 
    7850     799.6323    -109947.2            0   -106639.77    51472.478 
    7900    797.05654    -109936.5            0   -106639.72    51575.121 
    7950    793.87745   -109923.23            0   -106639.59    51701.705 
    8000    799.04335    -109944.6            0    -106639.6    51506.887 
    8050    798.83454   -109943.59            0   -106639.46    51537.233 
    8100    798.27021   -109941.45            0   -106639.65    51530.215 
    8150    797.05976   -109936.33            0   -106639.53    51583.105 
    8200    798.60377   -109942.83            0   -106639.65    51572.924 
    8250    796.07301   -109932.35            0   -106639.64    51631.316 
    8300    800.97147   -109952.72            0   -106639.75    51436.346 
    8350    799.55757   -109946.81            0   -106639.69    51489.057 
    8400    795.45639   -109929.73            0   -106639.57    51708.596 
    8450    795.04329   -109927.88            0   -106639.42    51674.515 
    8500    796.68719   -109934.72            0   -106639.47    51603.448 
    8550    798.56768   -109942.67            0   -106639.64    51515.319 
    8600    794.93299   -109927.48            0   -106639.48    51670.092 
    8650    796.24453   -109932.87            0   -106639.45    51612.132 
    8700    797.50443   -109938.19            0   -106639.56    51536.171 
    8750    798.23989   -109941.29            0   -106639.61    51551.939 
    8800    793.51125   -109921.58            0   -106639.47    51765.042 
    8850    795.13677   -109928.33            0   -106639.49    51667.119 
    8900     796.3888   -109933.56            0   -106639.54     51609.08 
    8950     797.3845   -109937.64            0    -106639.5    51569.016 
    9000    796.53802   -109934.06            0   -106639.42    51628.855 
    9050    794.44037   -109925.46            0    -106639.5    51657.841 
    9100    795.68388   -109930.63            0   -106639.53    51607.965 
    9150    793.19208   -109920.25            0   -106639.45    51756.626 
    9200    795.54079   -109930.03            0   -106639.52    51633.547 
    9250    795.76973   -109930.83            0   -106639.37    51661.554 
    9300    801.70135   -109955.69            0   -106639.69    51354.175 
    9350    802.04586   -109957.08            0   -106639.67    51320.387 
    9400    796.24736   -109932.82            0   -106639.39    51614.331 
    9450    800.26298   -109949.64            0    -106639.6    51476.107 
    9500    792.80167   -109918.35            0   -106639.16    51731.635 
    9550    795.17029   -109928.37            0   -106639.39    51618.859 
    9600    800.98814   -109952.64            0    -106639.6    51409.711 
    9650    794.38792   -109925.18            0   -106639.43    51661.567 
    9700    799.34197   -109945.57            0   -106639.34    51529.357 
    9750    801.95758    -109956.7            0   -106639.65    51381.104 
    9800    797.57292   -109938.33            0   -106639.41    51558.315 
    9850    802.42884   -109958.58            0   -106639.57    51393.827 
    9900     797.9452   -109939.89            0   -106639.43    51491.636 
    9950    795.72923   -109930.74            0   -106639.44    51671.149 
   10000     800.3061   -109949.63            0   -106639.41    51452.612 
Loop time of 6.27936 on 32 procs for 10000 steps with 32000 atoms

Performance: 687.968 ns/day, 0.035 hours/ns, 1592.519 timesteps/s
95.1% CPU use with 32 MPI tasks x 1 OpenMP threads

MPI task timing breakdown:
Section |  min time  |  avg time  |  max time  |%varavg| %total
---------------------------------------------------------------
Pair    | 4.3307     | 4.5789     | 4.7117     |   3.6 | 72.92
Neigh   | 0.39398    | 0.44968    | 0.47443    |   2.4 |  7.16
Comm    | 0.92461    | 1.0777     | 1.3847     |   8.7 | 17.16
Output  | 0.0053854  | 0.0059492  | 0.0066598  |   0.4 |  0.09
Modify  | 0.071093   | 0.079252   | 0.083818   |   0.9 |  1.26
Other   |            | 0.08793    |            |       |  1.40

Nlocal:           1000 ave        1032 max         980 min
Histogram: 2 2 9 5 6 4 2 0 1 1
Nghost:        2900.88 ave        2920 max        2868 min
Histogram: 1 1 0 1 4 7 3 8 4 3
Neighs:          37759 ave       39134 max       36963 min
Histogram: 2 3 10 5 6 2 2 0 1 1

Total # of neighbors = 1208289
Ave neighs/atom = 37.759031
Neighbor list builds = 1423
Dangerous builds = 1
Total wall time: 0:00:06
Intel(R) VTune(TM) Profiler 2022.2.0 collection completed successfully. Use the "aps --report /home/ubuntu/lammps/bench/aps_result_20220703" command to generate textual and HTML reports for the profiling session.
