LAMMPS (7 Jan 2022)
  using 1 OpenMP thread(s) per MPI task
Lattice spacing in x,y,z = 3.615 3.615 3.615
Created orthogonal box = (0 0 0) to (72.3 72.3 72.3)
  1 by 2 by 2 MPI processor grid
Created 32000 atoms
  using lattice units in orthogonal box = (0 0 0) to (72.3 72.3 72.3)
  create_atoms CPU = 0.003 seconds
Reading eam potential file Cu_u3.eam with DATE: 2007-06-11
----------------------------------------------------------
Using INTEL Package without Coprocessor.
Compiler: Intel Classic C++ 20.21.5 / Intel(R) C++ g++ 9.3 mode
SIMD compiler directives: Enabled
Precision: double
----------------------------------------------------------
Neighbor list info ...
  update every 1 steps, delay 5 steps, check yes
  max neighbors/atom: 2000, page size: 100000
  master list distance cutoff = 5.95
  ghost atom cutoff = 5.95
  binsize = 2.975, bins = 25 25 25
  1 neighbor lists, perpetual/occasional/extra = 1 0 0
  (1) pair eam/intel, perpetual
      attributes: half, newton on, intel
      pair build: half/bin/newton/intel
      stencil: half/bin/3d
      bin: intel
Setting up Verlet run ...
  Unit style    : metal
  Current step  : 0
  Time step     : 0.005
Per MPI rank memory allocation (min/avg/max) = 74.68 | 74.68 | 74.68 Mbytes
Step Temp E_pair E_mol TotEng Press 
       0         1600      -113280            0   -106662.09    18703.573 
      50    781.69049   -109873.35            0   -106640.13    52273.088 
     100      801.832    -109957.3            0   -106640.77    51322.821 
Loop time of 0.420983 on 4 procs for 100 steps with 32000 atoms

Performance: 102.617 ns/day, 0.234 hours/ns, 237.539 timesteps/s
98.5% CPU use with 4 MPI tasks x 1 OpenMP threads

MPI task timing breakdown:
Section |  min time  |  avg time  |  max time  |%varavg| %total
---------------------------------------------------------------
Pair    | 0.34014    | 0.34101    | 0.34277    |   0.2 | 81.00
Neigh   | 0.034415   | 0.034632   | 0.034968   |   0.1 |  8.23
Comm    | 0.028005   | 0.029069   | 0.030725   |   0.6 |  6.91
Output  | 0.0001117  | 0.00012524 | 0.00013635 |   0.0 |  0.03
Modify  | 0.0094931  | 0.010682   | 0.011641   |   0.9 |  2.54
Other   |            | 0.005469   |            |       |  1.30

Nlocal:           8000 ave        8008 max        7993 min
Histogram: 2 0 0 0 0 0 0 0 1 1
Nghost:        9130.25 ave        9138 max        9122 min
Histogram: 2 0 0 0 0 0 0 0 0 2
Neighs:         301946 ave      302392 max      301360 min
Histogram: 1 0 0 0 1 0 0 0 1 1

Total # of neighbors = 1207784
Ave neighs/atom = 37.74325
Neighbor list builds = 13
Dangerous builds = 0
Total wall time: 0:00:00
Intel(R) VTune(TM) Profiler 2022.2.0 collection completed successfully. Use the "aps --report /home/ubuntu/lammps/bench/aps_result_20220601" command to generate textual and HTML reports for the profiling session.
