LAMMPS (7 Jan 2022)
  using 1 OpenMP thread(s) per MPI task
Lattice spacing in x,y,z = 3.615 3.615 3.615
Created orthogonal box = (0 0 0) to (144.6 144.6 144.6)
  1 by 1 by 1 MPI processor grid
Created 256000 atoms
  using lattice units in orthogonal box = (0 0 0) to (144.6 144.6 144.6)
  create_atoms CPU = 0.041 seconds
Reading eam potential file Cu_u3.eam with DATE: 2007-06-11
----------------------------------------------------------
Using INTEL Package without Coprocessor.
Compiler: Intel Classic C++ 20.21.5 / Intel(R) C++ g++ 9.3 mode
SIMD compiler directives: Enabled
Precision: mixed
----------------------------------------------------------
Neighbor list info ...
  update every 1 steps, delay 5 steps, check yes
  max neighbors/atom: 2000, page size: 100000
  master list distance cutoff = 5.95
  ghost atom cutoff = 5.95
  binsize = 2.975, bins = 49 49 49
  1 neighbor lists, perpetual/occasional/extra = 1 0 0
  (1) pair eam/intel, perpetual
      attributes: half, newton on, intel
      pair build: half/bin/newton/intel
      stencil: half/bin/3d
      bin: intel
Setting up Verlet run ...
  Unit style    : metal
  Current step  : 0
  Time step     : 0.005
Per MPI rank memory allocation (min/avg/max) = 2232 | 2232 | 2232 Mbytes
Step Temp E_pair E_mol TotEng Press 
       0         1600   -906239.72            0   -853294.98        18704 
      50     780.3702   -878942.74            0   -853119.92    52325.524 
     100    798.91512   -879560.78            0    -853124.3    51436.874 
     150     795.6799   -879452.85            0   -853123.43    51622.578 
     200    797.93046   -879527.84            0   -853123.94    51516.036 
     250    797.51864   -879514.04            0   -853123.77    51535.127 
     300    798.09576   -879533.17            0   -853123.81    51506.844 
     350    796.90801   -879493.28            0   -853123.22    51573.859 
     400    797.85503   -879524.91            0   -853123.51     51551.57 
     450    798.42105    -879543.8            0   -853123.67    51521.877 
     500     799.1633   -879568.48            0   -853123.79    51492.928 
     550    796.86572   -879491.86            0    -853123.2    51561.011 
     600    797.12735   -879500.46            0   -853123.14    51559.724 
     650    797.44299   -879511.27            0   -853123.51    51554.876 
     700     796.8269   -879490.52            0   -853123.15     51588.54 
     750    798.83375   -879557.23            0   -853123.44    51491.616 
     800     798.5913    -879549.2            0   -853123.44    51509.562 
     850    798.37104   -879541.67            0    -853123.2    51525.459 
     900    797.95693   -879527.56            0    -853122.8    51540.655 
     950    799.17805   -879568.56            0   -853123.38    51496.902 
    1000    799.63299   -879583.54            0   -853123.31    51479.163 
    1050    798.66756   -879551.62            0   -853123.34    51478.613 
    1100    796.93615   -879493.67            0   -853122.68    51569.638 
    1150    796.74605   -879487.33            0   -853122.63    51575.266 
    1200    796.26285   -879471.05            0   -853122.34    51603.915 
    1250    797.07048   -879497.99            0   -853122.56    51553.277 
    1300    797.45666   -879510.61            0   -853122.39      51557.8 
    1350    798.98486   -879561.66            0   -853122.88    51497.248 
    1400    797.24949   -879503.59            0   -853122.23    51581.091 
    1450    797.70605   -879519.02            0   -853122.55    51537.145 
    1500    799.17927   -879568.06            0   -853122.85     51501.42 
    1550    797.60771   -879515.54            0   -853122.33    51538.989 
    1600    797.64845    -879516.6            0   -853122.04    51549.046 
    1650     796.9353   -879492.68            0   -853121.72    51592.021 
    1700    797.68029   -879517.84            0   -853122.23    51540.507 
    1750    796.96827   -879493.47            0   -853121.42    51576.286 
    1800    797.07007   -879496.96            0   -853121.53    51567.591 
    1850    797.58127   -879513.95            0   -853121.61    51549.621 
    1900    798.44292    -879542.8            0   -853121.95    51532.374 
    1950    796.03433   -879462.78            0   -853121.64    51606.286 
    2000    798.34652   -879539.18            0   -853121.52     51523.92 
    2050    797.59869   -879514.56            0   -853121.64    51564.529 
    2100    799.54425   -879579.53            0   -853122.23    51478.806 
    2150    798.11027   -879531.54            0    -853121.7    51539.787 
    2200    798.76954   -879553.99            0   -853122.33    51497.046 
    2250    796.08121   -879464.11            0   -853121.41    51614.481 
    2300    797.08389    -879497.1            0   -853121.23    51555.011 
    2350    799.05681   -879563.45            0   -853122.29    51486.162 
    2400    798.42519   -879542.41            0   -853122.15    51516.418 
    2450    797.26493   -879503.62            0   -853121.75    51558.547 
    2500    799.01305   -879562.03            0   -853122.32      51499.1 
    2550    797.10557   -879498.11            0   -853121.51      51568.5 
    2600    799.18146   -879566.85            0   -853121.56    51489.603 
    2650    798.89685   -879557.42            0   -853121.55    51493.664 
    2700    799.03361   -879561.69            0    -853121.3    51488.749 
    2750    797.39831   -879507.58            0   -853121.29    51556.157 
    2800    797.51254   -879511.38            0   -853121.31    51553.407 
    2850    799.20258   -879567.71            0   -853121.72    51481.294 
    2900    797.20945   -879501.19            0   -853121.16    51563.451 
    2950    796.85988   -879489.57            0    -853121.1    51572.543 
    3000    797.77566   -879519.72            0   -853120.95    51544.706 
    3050    797.85573   -879522.76            0   -853121.34    51544.421 
    3100    796.82169   -879488.31            0   -853121.11    51594.539 
    3150    797.62877   -879515.04            0   -853121.13    51574.789 
    3200    796.51559   -879478.02            0   -853120.94    51608.984 
    3250    797.89581   -879524.04            0   -853121.29    51542.586 
    3300    797.24802   -879502.45            0   -853121.14    51564.608 
    3350    798.24874    -879535.6            0   -853121.17    51534.936 
    3400    798.28083    -879536.4            0   -853120.92    51531.709 
    3450    797.79675   -879520.26            0   -853120.79    51544.714 
    3500    797.63253   -879514.73            0   -853120.69    51559.578 
    3550    796.51973   -879477.84            0   -853120.63    51597.466 
    3600    797.63146   -879514.66            0   -853120.67    51560.954 
    3650    799.53687   -879577.96            0   -853120.91    51469.582 
    3700    797.29159   -879503.31            0   -853120.56    51556.042 
    3750    798.42166   -879540.98            0   -853120.83    51517.688 
    3800    797.88706   -879522.71            0   -853120.25    51543.783 
    3850    798.45508   -879541.35            0    -853120.1    51523.425 
    3900    797.26441   -879501.81            0   -853119.96    51568.546 
    3950    797.65164   -879514.45            0   -853119.78    51550.015 
    4000    797.18986   -879499.15            0   -853119.77    51570.172 
    4050    798.64292   -879547.26            0    -853119.8    51512.152 
    4100    798.07925    -879528.5            0   -853119.68    51540.913 
    4150     796.5996   -879479.18            0   -853119.32     51596.06 
    4200    797.18282   -879498.16            0   -853119.01    51569.776 
    4250    798.54389   -879544.15            0   -853119.96    51521.863 
    4300    798.20168   -879532.13            0   -853119.27     51533.01 
    4350    800.04285   -879593.66            0   -853119.86    51453.736 
    4400    797.53064   -879509.76            0    -853119.1    51561.584 
    4450    799.79229   -879585.35            0   -853119.85     51475.96 
    4500    797.42153   -879506.37            0   -853119.32     51559.62 
    4550    797.47474   -879508.16            0   -853119.34    51565.279 
    4600    798.27168    -879534.3            0   -853119.11    51524.764 
    4650    799.11184   -879562.31            0   -853119.32    51500.163 
    4700    797.52234    -879509.2            0   -853118.82    51556.534 
    4750    796.96929   -879490.88            0   -853118.79    51581.272 
    4800    799.34464   -879569.61            0   -853118.92    51486.434 
    4850    796.54509   -879476.54            0   -853118.49    51606.106 
    4900    797.70935   -879515.16            0   -853118.59    51542.424 
    4950    798.26357   -879533.46            0   -853118.55    51548.531 
    5000     797.1911   -879497.37            0   -853117.95    51588.479 
    5050    798.80367   -879551.65            0   -853118.86    51501.028 
    5100    796.78055   -879483.93            0   -853118.09    51607.331 
    5150    797.69542   -879514.44            0   -853118.33     51544.44 
    5200    798.32797   -879535.27            0   -853118.22    51527.982 
    5250    799.28804    -879567.2            0   -853118.38    51517.896 
    5300    798.28914   -879534.09            0   -853118.33    51549.062 
    5350    798.03746   -879525.33            0    -853117.9    51546.236 
    5400    797.92479   -879521.55            0   -853117.85    51550.302 
    5450    798.97677   -879556.16            0   -853117.65    51496.667 
    5500    797.89588   -879520.67            0   -853117.92    51533.241 
    5550    796.57276   -879476.42            0   -853117.45    51597.843 
    5600     797.9122   -879520.68            0   -853117.39    51542.625 
    5650    799.72468   -879581.02            0   -853117.76    51489.962 
    5700    797.57544   -879508.97            0   -853116.83    51571.034 
    5750    797.33099   -879501.04            0   -853116.99    51583.547 
    5800    798.70568   -879547.04            0   -853117.49     51542.11 
    5850    797.85908   -879518.69            0   -853117.16    51538.352 
    5900    798.56877   -879542.25            0   -853117.23    51505.529 
    5950     798.2404   -879531.23            0   -853117.08    51520.285 
    6000    798.31666   -879533.72            0   -853117.05     51525.87 
    6050    796.76105   -879482.04            0   -853116.85    51585.004 
    6100    799.38069   -879569.23            0   -853117.35    51475.067 
    6150    797.84276   -879517.84            0   -853116.85    51544.151 
    6200    797.85688   -879518.32            0   -853116.87     51567.76 
    6250    798.17316   -879528.97            0   -853117.04    51551.088 
    6300    799.17453   -879562.08            0   -853117.02    51510.365 
    6350    798.40381   -879536.65            0   -853117.09    51521.316 
    6400    796.71236   -879479.93            0   -853116.35     51613.98 
    6450    798.54675    -879541.4            0   -853117.11    51523.127 
    6500    797.09437   -879492.81            0   -853116.59    51575.969 
    6550    799.70246   -879579.57            0   -853117.04    51491.663 
    6600    797.35568   -879501.52            0   -853116.65    51567.726 
    6650    796.00995   -879456.44            0    -853116.1    51629.446 
    6700    798.42379   -879536.51            0   -853116.29    51521.516 
    6750    797.55304   -879507.68            0   -853116.28     51565.72 
    6800    796.95815   -879487.48            0   -853115.77    51602.551 
    6850    798.21741    -879529.5            0   -853116.11    51543.872 
    6900    797.46948   -879504.65            0   -853116.01     51598.27 
    6950    798.65994   -879544.48            0   -853116.44     51538.77 
    7000    799.74569   -879580.68            0   -853116.72    51487.797 
    7050    797.48297   -879504.98            0   -853115.89     51585.04 
    7100    798.34031   -879533.68            0   -853116.22    51534.511 
    7150    797.34148   -879500.38            0   -853115.98    51575.609 
    7200    796.89527   -879485.12            0   -853115.48     51584.72 
    7250    800.14595   -879593.39            0   -853116.19    51470.547 
    7300    798.74865   -879546.39            0   -853115.43    51516.975 
    7350     799.0718   -879557.25            0   -853115.59    51499.017 
    7400    797.83438   -879516.13            0   -853115.42    51553.729 
    7450    796.67075   -879477.32            0   -853115.11    51592.238 
    7500    798.40785    -879535.2            0   -853115.51    51536.316 
    7550    797.11684   -879492.05            0   -853115.08    51589.492 
    7600    798.41746   -879535.33            0   -853115.33    51547.025 
    7650    797.68465   -879511.42            0   -853115.66    51557.423 
    7700    799.51696   -879572.35            0   -853115.96    51495.134 
    7750    798.03275   -879522.71            0   -853115.44     51547.44 
    7800    797.99464   -879520.91            0    -853114.9     51565.47 
    7850    796.87121   -879483.54            0    -853114.7    51610.254 
    7900    798.76313   -879546.59            0   -853115.15     51512.08 
    7950    797.87476   -879516.76            0   -853114.71    51541.933 
    8000    797.39071    -879500.8            0   -853114.77    51564.956 
    8050    797.72945   -879511.65            0   -853114.41    51572.251 
    8100    800.60469   -879607.71            0   -853115.33    51445.831 
    8150    799.77712    -879579.5            0    -853114.5    51484.458 
    8200    798.08026   -879523.32            0   -853114.47    51535.007 
    8250    798.32755   -879531.31            0   -853114.28    51545.198 
    8300     797.7158   -879511.12            0   -853114.33    51560.057 
    8350    797.22615   -879495.32            0   -853114.73    51575.995 
    8400    796.76137   -879479.49            0   -853114.28    51617.119 
    8450    797.83254   -879515.01            0   -853114.36    51566.734 
    8500    797.34871   -879498.86            0   -853114.22    51565.087 
    8550    797.81313   -879514.35            0   -853114.34    51543.449 
    8600    797.08693   -879489.62            0   -853113.64    51585.647 
    8650    798.09229   -879523.01            0   -853113.76    51533.199 
    8700    797.78216   -879512.58            0    -853113.6    51549.048 
    8750    798.68502   -879542.88            0   -853114.02    51511.069 
    8800    797.02257    -879487.4            0   -853113.55    51589.927 
    8850    798.64277    -879541.3            0   -853113.84    51517.144 
    8900    798.26139   -879528.78            0   -853113.94    51545.627 
    8950    799.25873   -879561.72            0   -853113.87    51501.765 
    9000    798.79895   -879546.71            0   -853114.08    51503.134 
    9050    800.07481   -879589.03            0   -853114.18    51477.876 
    9100    798.38525   -879532.52            0   -853113.58    51546.285 
    9150    799.33076   -879564.22            0   -853113.99    51497.228 
    9200     797.7204   -879510.44            0    -853113.5    51551.896 
    9250    798.71132    -879543.5            0   -853113.77    51500.116 
    9300    796.40003   -879466.65            0    -853113.4    51614.589 
    9350    797.74107   -879511.01            0   -853113.39    51551.172 
    9400    797.23481    -879494.5            0   -853113.63    51567.452 
    9450    796.74763   -879478.12            0   -853113.37    51593.052 
    9500    797.65623   -879508.75            0   -853113.93     51569.18 
    9550    798.55376   -879538.03            0   -853113.52    51526.254 
    9600    798.05048   -879521.58            0   -853113.72    51562.979 
    9650    797.02522    -879487.8            0   -853113.86    51588.447 
    9700     798.5754   -879538.83            0    -853113.6    51522.829 
    9750    797.31138   -879496.82            0   -853113.42     51569.93 
    9800    798.99997   -879552.85            0   -853113.57    51532.943 
    9850    797.40442   -879500.04            0   -853113.56      51578.3 
    9900    797.39977   -879499.79            0   -853113.46    51582.478 
    9950    795.33468   -879431.56            0   -853113.56    51636.258 
   10000    795.84377   -879447.91            0   -853113.06    51644.138 
Loop time of 997.01 on 1 procs for 10000 steps with 256000 atoms

Performance: 4.333 ns/day, 5.539 hours/ns, 10.030 timesteps/s
100.0% CPU use with 1 MPI tasks x 1 OpenMP threads

MPI task timing breakdown:
Section |  min time  |  avg time  |  max time  |%varavg| %total
---------------------------------------------------------------
Pair    | 843.24     | 843.24     | 843.24     |   0.0 | 84.58
Neigh   | 88.611     | 88.611     | 88.611     |   0.0 |  8.89
Comm    | 27.318     | 27.318     | 27.318     |   0.0 |  2.74
Output  | 0.11605    | 0.11605    | 0.11605    |   0.0 |  0.01
Modify  | 27.405     | 27.405     | 27.405     |   0.0 |  2.75
Other   |            | 10.32      |            |       |  1.04

Nlocal:         256000 ave      256000 max      256000 min
Histogram: 1 0 0 0 0 0 0 0 0 0
Nghost:          73248 ave       73248 max       73248 min
Histogram: 1 0 0 0 0 0 0 0 0 0
Neighs:    9.66458e+06 ave 9.66458e+06 max 9.66458e+06 min
Histogram: 1 0 0 0 0 0 0 0 0 0

Total # of neighbors = 9664578
Ave neighs/atom = 37.752258
Neighbor list builds = 1531
Dangerous builds = 3
Total wall time: 0:16:37
Intel(R) VTune(TM) Profiler 2022.2.0 collection completed successfully. Use the "aps --report /home/ubuntu/lammps/bench/aps_result_20220703" command to generate textual and HTML reports for the profiling session.
