LAMMPS (7 Jan 2022)
  using 1 OpenMP thread(s) per MPI task
Lattice spacing in x,y,z = 3.615 3.615 3.615
Created orthogonal box = (0 0 0) to (144.6 144.6 144.6)
  1 by 1 by 2 MPI processor grid
Created 256000 atoms
  using lattice units in orthogonal box = (0 0 0) to (144.6 144.6 144.6)
  create_atoms CPU = 0.028 seconds
Reading eam potential file Cu_u3.eam with DATE: 2007-06-11
----------------------------------------------------------
Using INTEL Package without Coprocessor.
Compiler: Intel Classic C++ 20.21.5 / Intel(R) C++ g++ 9.3 mode
SIMD compiler directives: Enabled
Precision: mixed
----------------------------------------------------------
Neighbor list info ...
  update every 1 steps, delay 5 steps, check yes
  max neighbors/atom: 2000, page size: 100000
  master list distance cutoff = 5.95
  ghost atom cutoff = 5.95
  binsize = 2.975, bins = 49 49 49
  1 neighbor lists, perpetual/occasional/extra = 1 0 0
  (1) pair eam/intel, perpetual
      attributes: half, newton on, intel
      pair build: half/bin/newton/intel
      stencil: half/bin/3d
      bin: intel
Setting up Verlet run ...
  Unit style    : metal
  Current step  : 0
  Time step     : 0.005
Per MPI rank memory allocation (min/avg/max) = 1120 | 1120 | 1120 Mbytes
Step Temp E_pair E_mol TotEng Press 
       0         1600   -906239.72            0   -853294.98        18704 
      50    780.37021   -878942.74            0   -853119.92    52325.525 
     100    798.91518   -879560.78            0    -853124.3    51436.882 
     150    795.67986   -879452.85            0   -853123.43    51622.586 
     200    797.93061   -879527.84            0   -853123.94    51516.026 
     250    797.51854   -879514.04            0   -853123.77    51535.146 
     300    798.09567   -879533.16            0    -853123.8    51506.887 
     350    796.90786   -879493.26            0   -853123.21    51573.899 
     400    797.85494   -879524.89            0    -853123.5     51551.57 
     450    798.42171    -879543.8            0   -853123.65    51521.864 
     500    799.16393   -879568.48            0   -853123.77    51492.892 
     550    796.86757   -879491.88            0   -853123.16    51560.956 
     600     797.1269   -879500.41            0   -853123.11    51559.738 
     650    797.44547   -879511.31            0   -853123.47    51554.805 
     700    796.82793   -879490.51            0   -853123.11    51588.555 
     750    798.83285   -879557.14            0   -853123.39    51491.608 
     800    798.58934   -879549.09            0   -853123.39    51509.648 
     850    798.36851   -879541.52            0   -853123.14    51525.839 
     900    797.95025   -879527.26            0   -853122.72    51540.971 
     950    799.17728   -879568.42            0   -853123.27    51496.972 
    1000    799.63902   -879583.64            0   -853123.21     51479.02 
    1050    798.67478   -879551.77            0   -853123.25    51478.633 
    1100    796.96016    -879494.4            0   -853122.61    51568.435 
    1150    796.77302   -879488.14            0   -853122.55    51574.519 
    1200    796.29126   -879471.84            0   -853122.19    51603.038 
    1250    797.03735   -879496.66            0   -853122.32    51555.237 
    1300    797.46837   -879510.96            0   -853122.36    51557.667 
    1350    798.94054   -879560.06            0   -853122.74    51499.206 
    1400    797.09536   -879498.22            0   -853121.97    51588.026 
    1450    797.51798   -879512.57            0   -853122.33    51546.741 
    1500    799.31247   -879572.46            0   -853122.84    51495.523 
    1550    797.69014   -879518.35            0   -853122.41    51535.863 
    1600    797.85971   -879523.85            0    -853122.3    51539.144 
    1650     797.0124   -879495.46            0   -853121.95    51592.573 
    1700    797.67114   -879517.79            0   -853122.48    51541.892 
    1750    797.14098   -879499.61            0   -853121.84    51569.686 
    1800    797.08978   -879497.93            0   -853121.85     51570.64 
    1850    798.11657   -879532.21            0   -853122.16    51531.462 
    1900    798.39939   -879541.22            0   -853121.81    51536.217 
    1950    797.14287   -879499.51            0   -853121.68     51568.07 
    2000    798.03771   -879529.58            0   -853122.14     51520.71 
    2050    799.26278   -879570.11            0   -853122.13    51479.237 
    2100    798.46615   -879543.76            0   -853122.14    51527.198 
    2150    799.32426   -879572.31            0    -853122.3    51480.212 
    2200    797.25797   -879502.87            0   -853121.24    51576.144 
    2250    798.58336   -879547.56            0   -853122.06    51509.726 
    2300     797.2314   -879502.01            0   -853121.25    51574.451 
    2350    797.66191      -879517            0      -853122    51538.629 
    2400    796.85098   -879489.41            0   -853121.24    51586.784 
    2450    796.91879   -879492.09            0   -853121.68    51572.357 
    2500    797.41989   -879508.27            0   -853121.27    51574.582 
    2550    796.14555    -879466.4            0   -853121.57    51613.455 
    2600    798.54269   -879545.78            0   -853121.63    51512.538 
    2650    798.03141      -879529            0   -853121.77    51557.129 
    2700    799.74655   -879585.99            0      -853122    51478.598 
    2750    798.02523   -879528.25            0   -853121.22     51549.89 
    2800     796.9965   -879494.45            0   -853121.46    51567.278 
    2850    796.47032   -879477.04            0   -853121.46    51607.604 
    2900    798.40119   -879540.75            0   -853121.28    51514.138 
    2950     798.5204   -879544.59            0   -853121.17    51523.133 
    3000    797.91324   -879524.72            0    -853121.4    51528.542 
    3050    797.20343   -879500.53            0   -853120.69    51571.602 
    3100    798.36317   -879539.37            0   -853121.15    51542.007 
    3150    798.41738   -879541.22            0   -853121.22     51521.76 
    3200    798.92353   -879557.85            0   -853121.09    51501.171 
    3250    798.77908   -879552.97            0      -853121    51514.378 
    3300    798.39849   -879540.25            0   -853120.87    51523.666 
    3350    798.23064   -879534.63            0    -853120.8    51514.992 
    3400    798.61261    -879547.4            0   -853120.94    51486.402 
    3450    797.62803   -879514.21            0   -853120.33    51557.278 
    3500    797.29309    -879502.9            0    -853120.1    51559.605 
    3550     797.5634   -879512.57            0   -853120.83    51551.851 
    3600    797.33985   -879504.65            0    -853120.3    51569.927 
    3650    798.91279   -879556.83            0   -853120.43    51517.047 
    3700    796.38185   -879472.31            0   -853119.67     51600.28 
    3750    798.39437   -879539.43            0   -853120.19    51531.529 
    3800    797.68917   -879515.95            0   -853120.05    51565.188 
    3850    798.48941   -879542.88            0   -853120.49    51532.518 
    3900    798.04727   -879528.27            0   -853120.52    51543.929 
    3950      797.849   -879521.26            0   -853120.06    51544.261 
    4000    798.97711   -879559.03            0    -853120.5    51503.717 
    4050    799.05549   -879561.48            0   -853120.36    51493.851 
    4100    798.75265   -879551.77            0   -853120.67    51500.548 
    4150    797.47719   -879509.26            0   -853120.37    51576.201 
    4200    797.42863   -879507.68            0   -853120.39    51569.517 
    4250    798.45837   -879541.86            0    -853120.5    51520.864 
    4300    797.36634   -879505.26            0   -853120.04    51556.766 
    4350    797.17427   -879498.93            0   -853120.06    51588.245 
    4400     798.9406   -879557.86            0   -853120.54    51500.892 
    4450    798.01961   -879527.12            0   -853120.28    51525.367 
    4500    797.43761   -879507.76            0   -853120.18    51552.581 
    4550    798.59821   -879546.37            0   -853120.39    51526.794 
    4600    798.89597   -879556.56            0   -853120.72    51504.297 
    4650    798.42358   -879539.97            0   -853119.76    51521.598 
    4700    798.33154   -879537.21            0   -853120.04    51519.247 
    4750    796.69491   -879482.91            0    -853119.9    51596.467 
    4800    797.14565   -879497.77            0   -853119.84    51579.249 
    4850    794.89835   -879423.33            0   -853119.77    51664.439 
    4900    796.85479   -879488.19            0   -853119.89     51592.01 
    4950    798.66758   -879548.83            0   -853120.55    51521.955 
    5000    797.61198   -879513.33            0   -853119.98    51583.207 
    5050    797.95619   -879524.91            0   -853120.17    51541.708 
    5100    797.77382   -879518.86            0   -853120.15    51543.249 
    5150    797.85281   -879521.31            0   -853119.98    51564.679 
    5200     798.1986   -879533.04            0   -853120.28    51530.906 
    5250    796.76003   -879484.87            0   -853119.71    51602.372 
    5300    796.72835   -879484.24            0   -853120.13    51587.435 
    5350     796.1778   -879465.27            0   -853119.37    51607.429 
    5400    798.05991    -879527.6            0   -853119.42    51534.036 
    5450    798.96531   -879557.88            0   -853119.75    51500.337 
    5500    797.75354   -879517.62            0   -853119.58    51546.715 
    5550    798.33767   -879537.07            0    -853119.7    51540.484 
    5600    797.46219   -879507.45            0   -853119.05    51571.206 
    5650    797.01548   -879492.65            0   -853119.04     51583.55 
    5700    798.90796   -879555.71            0   -853119.47    51524.538 
    5750    799.38646   -879572.03            0   -853119.96     51500.84 
    5800    797.30497   -879502.78            0   -853119.58    51584.599 
    5850    796.42898   -879473.31            0    -853119.1    51613.315 
    5900    800.06885   -879594.28            0   -853119.63    51461.798 
    5950     797.5619   -879510.75            0   -853119.05    51568.408 
    6000    799.18404   -879565.24            0   -853119.87     51497.68 
    6050    797.85047   -879520.58            0   -853119.34    51537.653 
    6100    798.13992   -879530.28            0   -853119.45    51526.966 
    6150     798.7093    -879549.3            0   -853119.63    51505.246 
    6200    798.25248   -879533.89            0   -853119.34    51543.087 
    6250    796.92583   -879489.47            0   -853118.82     51591.71 
    6300    798.02166   -879526.55            0   -853119.64    51541.757 
    6350    796.91955   -879489.24            0    -853118.8    51578.994 
    6400    798.13488   -879529.87            0   -853119.22    51544.689 
    6450    797.13561   -879496.46            0   -853118.87    51586.116 
    6500    796.85744   -879487.34            0   -853118.95    51586.685 
    6550    798.07975   -879528.08            0   -853119.25    51547.361 
    6600    797.35358   -879503.76            0   -853118.96    51568.495 
    6650    796.92509   -879489.12            0   -853118.49    51592.023 
    6700    798.13242    -879529.5            0   -853118.93    51521.387 
    6750    797.90997   -879521.91            0    -853118.7    51538.994 
    6800    798.36241   -879537.26            0   -853119.07    51524.841 
    6850    796.27607   -879467.28            0   -853118.13    51612.912 
    6900    798.25605   -879533.55            0   -853118.89    51534.671 
    6950    798.02574   -879525.54            0   -853118.49    51553.791 
    7000     797.4963   -879507.81            0   -853118.28    51585.513 
    7050     797.9614   -879523.36            0   -853118.45    51555.032 
    7100    799.06155   -879559.97            0   -853118.65      51507.4 
    7150    799.46039   -879573.27            0   -853118.75    51484.657 
    7200    797.81517   -879518.17            0   -853118.09    51546.338 
    7250    796.56295   -879476.34            0    -853117.7    51597.403 
    7300    798.82083   -879551.16            0   -853117.81    51508.337 
    7350    797.33084   -879501.52            0   -853117.47    51552.656 
    7400    796.65842   -879478.92            0   -853117.12    51605.143 
    7450    796.07645   -879459.37            0   -853116.83    51608.974 
    7500    796.03158   -879457.76            0    -853116.7    51617.304 
    7550    799.05026   -879558.31            0   -853117.36    51495.818 
    7600    797.95778   -879522.05            0   -853117.25    51536.174 
    7650    797.20605   -879496.81            0   -853116.89    51562.627 
    7700    798.95974   -879555.28            0   -853117.33    51516.973 
    7750    796.77576   -879482.41            0   -853116.73    51591.556 
    7800     797.2039   -879496.73            0   -853116.88    51587.576 
    7850    798.42366   -879536.61            0    -853116.4    51532.758 
    7900    798.54384   -879541.08            0   -853116.89    51505.271 
    7950    798.21407   -879529.98            0    -853116.7    51536.364 
    8000    797.05366   -879491.08            0    -853116.2     51583.72 
    8050    798.61648   -879542.93            0   -853116.34    51538.744 
    8100    797.38334   -879501.56            0   -853115.77    51575.045 
    8150    798.38634   -879534.89            0   -853115.91    51528.666 
    8200     799.0214   -879556.04            0   -853116.05    51512.232 
    8250     798.1272   -879526.29            0   -853115.88    51533.864 
    8300    798.11143   -879525.83            0   -853115.95    51541.747 
    8350    796.02059   -879456.21            0   -853115.51    51645.703 
    8400    798.89692   -879552.05            0   -853116.18    51511.965 
    8450    797.50014    -879505.1            0   -853115.45     51567.16 
    8500    799.21789   -879562.41            0   -853115.91    51478.953 
    8550    798.73765   -879546.54            0   -853115.94    51519.505 
    8600    798.76764   -879547.63            0   -853116.04    51513.111 
    8650    796.79456   -879482.28            0   -853115.98    51607.458 
    8700    796.57238   -879474.68            0   -853115.73     51598.48 
    8750    797.36713   -879500.88            0   -853115.62    51574.993 
    8800    797.96385   -879521.11            0   -853116.11    51548.346 
    8850    797.56965   -879507.83            0   -853115.88    51570.121 
    8900    798.29761   -879531.81            0   -853115.77    51537.204 
    8950    798.74442   -879547.23            0   -853116.41    51511.849 
    9000    797.66667   -879511.07            0   -853115.91    51569.861 
    9050    798.12402   -879526.37            0   -853116.08    51542.012 
    9100     796.4115   -879469.03            0    -853115.4    51613.435 
    9150     798.7666   -879547.25            0   -853115.69    51531.565 
    9200    797.58097    -879507.6            0   -853115.27    51585.005 
    9250    798.63452   -879542.78            0   -853115.59    51519.183 
    9300     797.5494   -879506.66            0   -853115.37    51567.916 
    9350    798.05204   -879523.64            0   -853115.72    51557.406 
    9400    798.29345   -879531.49            0   -853115.58    51516.224 
    9450    795.40578   -879435.29            0   -853114.94    51638.445 
    9500     797.9876    -879521.1            0   -853115.31    51544.251 
    9550    796.39887   -879467.97            0   -853114.76    51598.719 
    9600    798.16325   -879526.93            0   -853115.33    51544.526 
    9650    798.08442   -879524.34            0   -853115.36    51548.345 
    9700    797.61834   -879508.57            0      -853115    51567.047 
    9750    798.47026   -879537.25            0   -853115.49    51529.062 
    9800     798.4509    -879536.2            0   -853115.09    51518.803 
    9850    797.54857   -879506.09            0   -853114.84    51570.365 
    9900    797.54243   -879506.36            0   -853115.31    51573.696 
    9950     797.7859    -879514.1            0      -853115    51558.596 
   10000     798.1563   -879526.42            0   -853115.06    51527.656 
Loop time of 501.512 on 2 procs for 10000 steps with 256000 atoms

Performance: 8.614 ns/day, 2.786 hours/ns, 19.940 timesteps/s
99.9% CPU use with 2 MPI tasks x 1 OpenMP threads

MPI task timing breakdown:
Section |  min time  |  avg time  |  max time  |%varavg| %total
---------------------------------------------------------------
Pair    | 425.6      | 425.81     | 426.01     |   1.0 | 84.90
Neigh   | 43.327     | 43.414     | 43.502     |   1.3 |  8.66
Comm    | 16.527     | 16.773     | 17.019     |   6.0 |  3.34
Output  | 0.064183   | 0.065081   | 0.065979   |   0.4 |  0.01
Modify  | 10.426     | 10.504     | 10.583     |   2.4 |  2.09
Other   |            | 4.95       |            |       |  0.99

Nlocal:         128000 ave      128038 max      127962 min
Histogram: 1 0 0 0 0 0 0 0 0 1
Nghost:        49868.5 ave       49907 max       49830 min
Histogram: 1 0 0 0 0 0 0 0 0 1
Neighs:    4.83163e+06 ave 4.83309e+06 max 4.83016e+06 min
Histogram: 1 0 0 0 0 0 0 0 0 1

Total # of neighbors = 9663251
Ave neighs/atom = 37.747074
Neighbor list builds = 1531
Dangerous builds = 6
Total wall time: 0:08:21
Intel(R) VTune(TM) Profiler 2022.2.0 collection completed successfully. Use the "aps --report /home/ubuntu/lammps/bench/aps_result_20220703" command to generate textual and HTML reports for the profiling session.
