LAMMPS (7 Jan 2022)
  using 1 OpenMP thread(s) per MPI task
New timer settings: style=full  mode=nosync  timeout=off
Lattice spacing in x,y,z = 3.615 3.615 3.615
Created orthogonal box = (0 0 0) to (216.9 216.9 216.9)
  1 by 1 by 2 MPI processor grid
Created 864000 atoms
  using lattice units in orthogonal box = (0 0 0) to (216.9 216.9 216.9)
  create_atoms CPU = 0.057 seconds
Reading eam potential file Cu_u3.eam with DATE: 2007-06-11
----------------------------------------------------------
Using INTEL Package without Coprocessor.
Compiler: Intel Classic C++ 20.21.5 / Intel(R) C++ g++ 9.3 mode
SIMD compiler directives: Enabled
Precision: mixed
----------------------------------------------------------
Neighbor list info ...
  update every 1 steps, delay 5 steps, check yes
  max neighbors/atom: 2000, page size: 100000
  master list distance cutoff = 5.95
  ghost atom cutoff = 5.95
  binsize = 2.975, bins = 73 73 73
  1 neighbor lists, perpetual/occasional/extra = 1 0 0
  (1) pair eam/intel, perpetual
      attributes: half, newton on, intel
      pair build: half/bin/newton/intel
      stencil: half/bin/3d
      bin: intel
Setting up Verlet run ...
  Unit style    : metal
  Current step  : 0
  Time step     : 0.005
Per MPI rank memory allocation (min/avg/max) = 3762 | 3762 | 3762 Mbytes
Step Temp E_pair E_mol TotEng Press 
       0         1600   -3058559.2            0   -2879870.1    18704.286 
      50    780.51283   -2966447.5            0   -2879279.4    52309.311 
     100     798.5709   -2968476.9            0     -2879292    51460.468 
Loop time of 18.193 on 2 procs for 100 steps with 864000 atoms

Performance: 2.375 ns/day, 10.107 hours/ns, 5.497 timesteps/s
99.0% CPU use with 2 MPI tasks x 1 OpenMP threads

MPI task timing breakdown:
Section |  min time  |  avg time  |  max time  |%varavg|  %CPU | %total
-----------------------------------------------------------------------
Pair    | 15.32      | 15.324     | 15.328     |   0.1 |  99.2 | 84.23
Neigh   | 1.4727     | 1.4736     | 1.4745     |   0.1 |  99.2 |  8.10
Comm    | 0.677      | 0.68096    | 0.68492    |   0.5 |  94.1 |  3.74
Output  | 0.002277   | 0.0022866  | 0.0022963  |   0.0 | 100.0 |  0.01
Modify  | 0.51923    | 0.52077    | 0.52231    |   0.2 |  98.5 |  2.86
Other   |            | 0.1912     |            |       |       |  1.05

Nlocal:         432000 ave      432002 max      431998 min
Histogram: 1 0 0 0 0 0 0 0 0 1
Nghost:         108316 ave      108317 max      108314 min
Histogram: 1 0 0 0 0 0 0 0 0 1
Neighs:    1.62978e+07 ave 1.62979e+07 max 1.62977e+07 min
Histogram: 1 0 0 0 0 0 0 0 0 1

Total # of neighbors = 32595635
Ave neighs/atom = 37.726429
Neighbor list builds = 15
Dangerous builds = 0
Total wall time: 0:00:18
Intel(R) VTune(TM) Profiler 2022.2.0 collection completed successfully. Use the "aps --report /home/ubuntu/lammps/bench/aps_result_20220519" command to generate textual and HTML reports for the profiling session.
