LAMMPS (7 Jan 2022)
  using 1 OpenMP thread(s) per MPI task
Lattice spacing in x,y,z = 3.615 3.615 3.615
Created orthogonal box = (0 0 0) to (144.6 144.6 144.6)
  2 by 2 by 4 MPI processor grid
Created 256000 atoms
  using lattice units in orthogonal box = (0 0 0) to (144.6 144.6 144.6)
  create_atoms CPU = 0.006 seconds
Reading eam potential file Cu_u3.eam with DATE: 2007-06-11
----------------------------------------------------------
Using INTEL Package without Coprocessor.
Compiler: Intel Classic C++ 20.21.5 / Intel(R) C++ g++ 9.3 mode
SIMD compiler directives: Enabled
Precision: mixed
----------------------------------------------------------
Neighbor list info ...
  update every 1 steps, delay 5 steps, check yes
  max neighbors/atom: 2000, page size: 100000
  master list distance cutoff = 5.95
  ghost atom cutoff = 5.95
  binsize = 2.975, bins = 49 49 49
  1 neighbor lists, perpetual/occasional/extra = 1 0 0
  (1) pair eam/intel, perpetual
      attributes: half, newton on, intel
      pair build: half/bin/newton/intel
      stencil: half/bin/3d
      bin: intel
Setting up Verlet run ...
  Unit style    : metal
  Current step  : 0
  Time step     : 0.005
Per MPI rank memory allocation (min/avg/max) = 136.3 | 143.1 | 149.8 Mbytes
Step Temp E_pair E_mol TotEng Press 
       0         1600   -906239.72            0   -853294.98        18704 
      50     780.3702   -878942.74            0   -853119.93    52325.527 
     100    798.91513   -879560.78            0    -853124.3    51436.869 
     150    795.67976   -879452.85            0   -853123.43    51622.587 
     200    797.93049   -879527.84            0   -853123.94     51516.03 
     250    797.51872   -879514.04            0   -853123.78    51535.132 
     300    798.09572   -879533.18            0   -853123.82     51506.84 
     350     796.9075   -879493.27            0   -853123.23     51573.88 
     400    797.85456   -879524.91            0   -853123.53    51551.564 
     450    798.42113   -879543.82            0   -853123.69    51521.812 
     500    799.16359   -879568.52            0   -853123.82    51492.821 
     550    796.86523   -879491.87            0   -853123.23    51560.933 
     600     797.1262   -879500.46            0   -853123.18     51559.65 
     650    797.44469   -879511.34            0   -853123.53    51554.779 
     700    796.82836   -879490.59            0   -853123.16    51588.484 
     750    798.83341   -879557.21            0   -853123.44    51491.463 
     800    798.59235   -879549.25            0   -853123.45    51509.512 
     850    798.37269   -879541.75            0   -853123.22    51525.384 
     900    797.94766    -879527.3            0   -853122.83    51540.913 
     950    799.17365   -879568.47            0   -853123.44    51496.791 
    1000    799.63723   -879583.71            0   -853123.34    51479.223 
    1050     798.6868   -879552.23            0   -853123.31    51477.846 
    1100    796.94037   -879493.82            0   -853122.69    51569.232 
    1150    796.73694      -879487            0    -853122.6    51575.936 
    1200    796.23304   -879470.07            0   -853122.35    51604.706 
    1250    797.06147   -879497.64            0    -853122.5    51554.371 
    1300    797.46034   -879510.92            0   -853122.59    51556.642 
    1350    799.07297   -879564.64            0   -853122.94    51493.236 
    1400    797.25075   -879503.68            0   -853122.28    51581.121 
    1450    797.50962   -879512.59            0   -853122.62    51547.769 
    1500    799.24007   -879570.35            0   -853123.12    51498.992 
    1550    797.87689   -879524.86            0   -853122.74    51529.815 
    1600    797.43194   -879509.71            0   -853122.31    51560.134 
    1650    796.70541   -879485.46            0   -853122.11    51607.595 
    1700    798.04044   -879530.43            0   -853122.89    51531.157 
    1750    797.42103    -879509.6            0   -853122.56    51559.064 
    1800    797.33296   -879506.65            0   -853122.53     51558.15 
    1850    796.67408   -879484.46            0   -853122.14    51595.382 
    1900    797.68157   -879517.98            0   -853122.33    51558.231 
    1950    797.35905   -879507.33            0   -853122.35    51538.018 
    2000    798.32454   -879538.95            0   -853122.02    51517.354 
    2050    799.03728   -879562.83            0   -853122.32    51502.696 
    2100    798.09814   -879531.56            0   -853122.12    51507.473 
    2150    797.30689   -879505.41            0   -853122.15    51558.613 
    2200    798.95477   -879560.08            0   -853122.29    51497.506 
    2250    800.56203   -879613.89            0   -853122.92    51432.141 
    2300    797.89863   -879525.02            0   -853122.18    51545.247 
    2350    797.47665    -879510.7            0   -853121.83    51551.461 
    2400    799.05274    -879563.2            0   -853122.17    51477.695 
    2450    797.58164   -879514.13            0   -853121.78    51576.446 
    2500    797.35699   -879506.63            0   -853121.72    51574.397 
    2550    797.63652   -879515.85            0   -853121.68    51553.253 
    2600    798.90918   -879558.17            0   -853121.89    51500.826 
    2650    796.61942   -879481.76            0   -853121.25    51598.611 
    2700    799.23747    -879568.9            0   -853121.76    51488.353 
    2750    799.46533   -879576.42            0   -853121.73    51484.117 
    2800    798.11826   -879531.47            0   -853121.36    51523.279 
    2850    797.29592   -879503.76            0   -853120.86    51569.286 
    2900    798.36892   -879539.21            0   -853120.81    51544.648 
    2950    798.24286   -879534.82            0   -853120.59    51535.633 
    3000    797.69737   -879517.11            0   -853120.93    51545.169 
    3050    798.58785   -879546.55            0    -853120.9    51513.625 
    3100    796.82703   -879487.81            0   -853120.43    51584.001 
    3150    796.27754   -879469.24            0   -853120.05    51606.993 
    3200    797.54706   -879511.71            0   -853120.51    51560.424 
    3250    797.18247   -879499.67            0   -853120.52     51581.28 
    3300    797.01339   -879493.89            0   -853120.34     51588.21 
    3350    798.76257    -879552.4            0   -853120.98    51523.837 
    3400    797.56546   -879512.38            0   -853120.56     51549.71 
    3450    797.13155    -879497.8            0   -853120.34    51557.562 
    3500    797.82619   -879520.59            0   -853120.15    51552.776 
    3550    797.09983    -879496.2            0   -853119.79    51585.198 
    3600    797.64578   -879514.84            0   -853120.37     51550.64 
    3650     798.6751   -879549.09            0   -853120.55    51516.815 
    3700    798.08614   -879529.41            0   -853120.36    51533.651 
    3750    795.99107   -879459.55            0   -853119.83    51610.034 
    3800     797.8799   -879521.89            0   -853119.67    51541.457 
    3850    796.92453   -879490.37            0   -853119.77    51575.653 
    3900    796.93105   -879490.21            0   -853119.38    51575.607 
    3950    797.02506   -879493.46            0   -853119.53     51587.06 
    4000    798.37198   -879538.48            0   -853119.98    51533.003 
    4050    798.32538    -879536.8            0   -853119.84    51532.044 
    4100    797.33292   -879503.97            0   -853119.85    51585.473 
    4150    798.92823   -879557.12            0   -853120.21    51505.233 
    4200    796.76553   -879484.73            0   -853119.38    51583.412 
    4250    796.69961   -879482.47            0   -853119.31    51585.537 
    4300    798.84315   -879553.58            0   -853119.49    51518.017 
    4350    795.94175   -879456.84            0   -853118.76    51640.104 
    4400    797.42995    -879506.7            0   -853119.37    51579.712 
    4450    798.86891   -879554.63            0   -853119.68    51506.115 
    4500    799.47581   -879574.61            0   -853119.58    51478.573 
    4550    796.85639   -879487.93            0   -853119.58    51588.592 
    4600    798.62578   -879546.49            0   -853119.59    51539.392 
    4650    795.96322   -879458.03            0   -853119.23    51620.273 
    4700    798.39959   -879539.01            0    -853119.6    51519.969 
    4750    798.81771   -879552.89            0   -853119.64     51518.19 
    4800    798.38441   -879538.19            0   -853119.27    51522.505 
    4850    798.18411   -879531.64            0   -853119.35     51542.63 
    4900    797.97986   -879524.74            0   -853119.22    51550.612 
    4950    797.77766   -879517.68            0   -853118.85    51564.772 
    5000    799.83208   -879586.37            0   -853119.55    51481.155 
    5050    797.15225   -879496.97            0   -853118.83    51589.488 
    5100    798.81462   -879552.14            0   -853118.99     51501.13 
    5150     798.4252   -879539.44            0   -853119.17    51521.174 
    5200    798.17423   -879530.73            0   -853118.77    51531.997 
    5250    798.14895   -879530.07            0   -853118.95    51524.852 
    5300    797.44879    -879506.8            0   -853118.85     51573.97 
    5350    799.00869   -879558.73            0   -853119.16    51483.739 
    5400    797.58874   -879511.58            0   -853118.99    51555.399 
    5450    796.27341   -879467.51            0   -853118.45    51602.006 
    5500    796.55437   -879477.19            0   -853118.84    51600.862 
    5550    797.33093   -879502.81            0   -853118.75    51578.054 
    5600    798.08343   -879528.32            0   -853119.37    51537.395 
    5650    796.36586   -879470.98            0   -853118.86    51605.081 
    5700    798.34573   -879536.54            0   -853118.91    51535.254 
    5750    799.05675   -879560.34            0   -853119.17    51502.124 
    5800    798.33417   -879535.84            0   -853118.59    51553.102 
    5850    798.55966   -879543.26            0   -853118.55    51524.428 
    5900    796.54458   -879476.12            0   -853118.09    51596.522 
    5950    798.48223   -879540.83            0   -853118.68    51515.625 
    6000    798.07154   -879527.23            0   -853118.67    51520.645 
    6050    796.46443   -879473.38            0      -853118    51613.302 
    6100    798.17858   -879530.65            0   -853118.55    51525.659 
    6150    798.30576   -879534.72            0   -853118.41    51536.813 
    6200    796.18015   -879463.72            0   -853117.75    51615.577 
    6250    797.43607   -879505.58            0   -853118.05    51589.557 
    6300    798.30911    -879534.2            0   -853117.78    51546.929 
    6350    798.13933   -879528.71            0   -853117.91    51531.155 
    6400    797.70672   -879514.16            0   -853117.68    51560.554 
    6450    798.04923   -879525.89            0   -853118.06    51527.835 
    6500    797.89604   -879520.34            0   -853117.59    51551.972 
    6550    798.39437   -879537.12            0   -853117.88    51526.428 
    6600    797.06121   -879492.24            0   -853117.12    51579.392 
    6650    797.82356   -879517.82            0   -853117.47    51546.837 
    6700    799.23472   -879564.72            0   -853117.67    51501.738 
    6750    798.54319   -879541.44            0   -853117.27    51523.311 
    6800    798.13967   -879528.29            0   -853117.47    51542.416 
    6850    796.79671   -879483.23            0   -853116.86    51602.672 
    6900    798.00626   -879523.44            0   -853117.04    51544.271 
    6950      797.388   -879502.73            0   -853116.78    51583.025 
    7000    797.62068   -879510.71            0   -853117.07    51554.342 
    7050     797.1514   -879494.73            0   -853116.61    51564.802 
    7100    796.36054   -879468.46            0   -853116.52    51599.892 
    7150    796.90408   -879486.39            0   -853116.46    51590.028 
    7200    796.78242   -879482.53            0   -853116.63    51587.464 
    7250    798.11729   -879526.99            0   -853116.91    51546.681 
    7300    797.83042   -879517.52            0   -853116.94    51546.997 
    7350      798.265   -879531.35            0   -853116.38    51534.638 
    7400    797.65372   -879511.34            0   -853116.61    51562.117 
    7450    797.28607   -879499.27            0    -853116.7    51570.695 
    7500    796.84292   -879484.64            0   -853116.73    51591.723 
    7550    798.79153   -879549.27            0   -853116.88    51516.549 
    7600    797.77783   -879515.43            0   -853116.58    51541.334 
    7650    797.53832   -879507.13            0   -853116.22    51571.076 
    7700     797.1676   -879494.85            0    -853116.2    51589.082 
    7750    797.49909   -879506.21            0   -853116.59    51571.001 
    7800    796.13295   -879460.56            0   -853116.15    51638.577 
    7850     796.6231   -879476.91            0   -853116.28    51597.633 
    7900    798.94916    -879554.3            0    -853116.7    51508.872 
    7950    797.83605   -879517.07            0    -853116.3    51557.743 
    8000    796.94946   -879487.57            0   -853116.14    51582.895 
    8050    798.92129   -879553.37            0    -853116.7    51513.089 
    8100    799.09863   -879559.15            0    -853116.6    51500.897 
    8150    797.18052   -879495.35            0   -853116.27    51573.492 
    8200    798.07311    -879524.6            0   -853115.99    51538.698 
    8250    797.69727   -879512.35            0   -853116.17    51547.709 
    8300    797.93687   -879520.52            0   -853116.42    51557.274 
    8350    799.48597   -879571.99            0   -853116.62    51485.014 
    8400     797.1288   -879493.16            0    -853115.8    51576.901 
    8450    798.75369   -879547.42            0   -853116.29    51520.368 
    8500    798.64726   -879544.07            0   -853116.46    51510.819 
    8550    797.63878   -879510.29            0   -853116.05     51562.32 
    8600    797.00193   -879489.01            0   -853115.85    51576.459 
    8650    797.09319   -879491.84            0   -853115.65     51582.92 
    8700    798.71558    -879545.6            0   -853115.73    51505.872 
    8750    796.59543   -879475.25            0   -853115.54    51586.248 
    8800    797.21236   -879495.24            0   -853115.11    51579.882 
    8850    797.82113   -879515.91            0   -853115.64    51546.394 
    8900     797.8862    -879517.9            0   -853115.47    51563.684 
    8950    796.94791    -879486.7            0   -853115.32      51587.2 
    9000    798.48919   -879537.86            0   -853115.47    51529.592 
    9050    797.11144   -879491.94            0   -853115.15    51578.059 
    9100    797.14283   -879492.63            0    -853114.8    51579.807 
    9150      798.432   -879535.78            0   -853115.29    51531.427 
    9200     797.9485   -879519.55            0   -853115.06    51539.796 
    9250    799.88233    -879583.7            0   -853115.22    51470.537 
    9300    798.73217   -879545.58            0   -853115.16    51513.837 
    9350    797.92765   -879518.71            0   -853114.91    51557.824 
    9400    798.16661   -879526.32            0   -853114.62    51530.997 
    9450    797.85308   -879515.55            0   -853114.21     51550.25 
    9500    796.98899   -879487.07            0   -853114.34    51584.984 
    9550     797.4473   -879502.24            0   -853114.34    51567.716 
    9600    797.71435   -879510.97            0   -853114.23    51558.112 
    9650     798.6101   -879540.82            0   -853114.44    51514.458 
    9700     799.2425   -879561.94            0   -853114.63    51477.402 
    9750    798.32989   -879531.82            0   -853114.71    51516.506 
    9800    797.54323   -879505.32            0   -853114.24    51558.404 
    9850    798.31064   -879530.83            0   -853114.36    51543.084 
    9900    797.97413   -879519.89            0   -853114.55     51535.99 
    9950    797.69704   -879510.49            0   -853114.32    51554.167 
   10000    796.68766   -879476.96            0   -853114.19    51586.919 
Loop time of 66.3644 on 16 procs for 10000 steps with 256000 atoms

Performance: 65.095 ns/day, 0.369 hours/ns, 150.683 timesteps/s
99.5% CPU use with 16 MPI tasks x 1 OpenMP threads

MPI task timing breakdown:
Section |  min time  |  avg time  |  max time  |%varavg| %total
---------------------------------------------------------------
Pair    | 53.98      | 54.271     | 54.722     |   3.0 | 81.78
Neigh   | 5.7808     | 5.8417     | 5.9967     |   2.3 |  8.80
Comm    | 3.5107     | 3.9504     | 4.2596     |  12.1 |  5.95
Output  | 0.013722   | 0.018089   | 0.031618   |   5.0 |  0.03
Modify  | 1.4158     | 1.4763     | 1.5477     |   3.5 |  2.22
Other   |            | 0.8073     |            |       |  1.22

Nlocal:          16000 ave       16097 max       15872 min
Histogram: 1 0 0 1 4 3 3 2 0 2
Nghost:        13819.8 ave       13949 max       13723 min
Histogram: 2 0 2 3 3 4 1 0 0 1
Neighs:         603852 ave      607718 max      598606 min
Histogram: 1 0 1 0 2 5 3 2 1 1

Total # of neighbors = 9661638
Ave neighs/atom = 37.740773
Neighbor list builds = 1537
Dangerous builds = 3
Total wall time: 0:01:06
Intel(R) VTune(TM) Profiler 2022.2.0 collection completed successfully. Use the "aps --report /home/ubuntu/lammps/bench/aps_result_20220703" command to generate textual and HTML reports for the profiling session.
