LAMMPS (7 Jan 2022)
  using 1 OpenMP thread(s) per MPI task
Lattice spacing in x,y,z = 3.615 3.615 3.615
Created orthogonal box = (0 0 0) to (216.9 216.9 216.9)
  2 by 4 by 4 MPI processor grid
Created 864000 atoms
  using lattice units in orthogonal box = (0 0 0) to (216.9 216.9 216.9)
  create_atoms CPU = 0.008 seconds
Reading eam potential file Cu_u3.eam with DATE: 2007-06-11
----------------------------------------------------------
Using INTEL Package without Coprocessor.
Compiler: Intel Classic C++ 20.21.5 / Intel(R) C++ g++ 9.3 mode
SIMD compiler directives: Enabled
Precision: mixed
----------------------------------------------------------
Neighbor list info ...
  update every 1 steps, delay 5 steps, check yes
  max neighbors/atom: 2000, page size: 100000
  master list distance cutoff = 5.95
  ghost atom cutoff = 5.95
  binsize = 2.975, bins = 73 73 73
  1 neighbor lists, perpetual/occasional/extra = 1 0 0
  (1) pair eam/intel, perpetual
      attributes: half, newton on, intel
      pair build: half/bin/newton/intel
      stencil: half/bin/3d
      bin: intel
Setting up Verlet run ...
  Unit style    : metal
  Current step  : 0
  Time step     : 0.005
Per MPI rank memory allocation (min/avg/max) = 239 | 239 | 239 Mbytes
Step Temp E_pair E_mol TotEng Press 
       0         1600   -3058559.2            0   -2879870.1    18704.286 
      50    780.51282   -2966447.5            0   -2879279.4    52309.314 
     100     798.5709   -2968476.9            0     -2879292    51460.461 
     150    796.91962   -2968292.3            0   -2879291.8    51559.443 
     200    797.22365   -2968326.6            0   -2879292.2    51553.428 
     250    797.26165   -2968330.9            0   -2879292.2     51553.18 
     300    797.92832   -2968405.3            0   -2879292.2    51531.604 
     350    797.55182     -2968363            0   -2879291.9    51545.486 
     400    798.29699   -2968447.6            0   -2879293.3     51519.15 
     450    798.24001   -2968440.9            0     -2879293    51516.917 
     500     797.7563   -2968385.4            0   -2879291.4    51542.936 
     550    796.85174   -2968284.2            0   -2879291.3     51587.69 
     600    798.25465   -2968441.3            0   -2879291.7    51515.188 
     650    797.35597   -2968339.6            0   -2879290.3    51552.102 
     700    797.40878   -2968345.9            0   -2879290.8    51554.348 
     750    797.52679   -2968359.4            0   -2879291.1    51546.721 
     800    798.06636   -2968419.7            0   -2879291.1    51533.102 
     850    797.30227   -2968333.9            0   -2879290.6    51570.648 
     900    797.46817   -2968353.3            0   -2879291.5    51541.311 
     950    798.03988   -2968416.4            0   -2879290.8    51527.275 
    1000    797.34258   -2968337.5            0   -2879289.7    51562.232 
    1050     797.9009   -2968399.7            0   -2879289.6    51535.368 
    1100    797.08934   -2968308.1            0   -2879288.6    51573.365 
    1150    797.54452   -2968360.1            0   -2879289.8    51559.556 
    1200    796.58227   -2968251.9            0   -2879289.1    51587.055 
    1250    797.75849   -2968383.4            0   -2879289.2    51543.413 
    1300    796.89839     -2968287            0   -2879288.9    51583.492 
    1350    798.42553   -2968458.6            0   -2879289.9    51519.813 
    1400    797.77763   -2968386.2            0   -2879289.9    51547.932 
    1450    797.93792   -2968402.6            0   -2879288.4     51544.56 
    1500    797.13208     -2968312            0   -2879287.7    51582.389 
    1550    798.08242   -2968419.8            0   -2879289.4    51528.819 
    1600    798.42052   -2968457.3            0   -2879289.2    51515.088 
    1650    798.29364   -2968442.4            0   -2879288.5    51529.638 
    1700    797.63711   -2968369.1            0   -2879288.5     51547.62 
    1750    797.51043   -2968354.1            0   -2879287.6    51561.279 
    1800    797.62682   -2968366.4            0     -2879287    51547.221 
    1850    797.67428   -2968372.1            0   -2879287.3    51553.115 
    1900    798.25164   -2968436.8            0   -2879287.5    51531.674 
    1950    797.61245   -2968364.5            0   -2879286.7    51554.399 
    2000    797.64476   -2968368.5            0     -2879287    51550.482 
    2050    797.96664   -2968405.1            0   -2879287.6    51537.169 
    2100    797.33402   -2968333.7            0   -2879286.9     51571.51 
    2150    798.37666     -2968451            0   -2879287.8    51523.888 
    2200    797.83558   -2968389.5            0   -2879286.8    51541.759 
    2250    797.48431   -2968349.2            0   -2879285.7    51559.035 
    2300    798.02434   -2968410.6            0   -2879286.7    51534.259 
    2350    796.91222   -2968284.8            0   -2879285.1    51579.175 
    2400    797.91495   -2968397.1            0   -2879285.4    51546.527 
    2450    797.65582   -2968368.4            0   -2879285.7    51545.589 
    2500     796.8621   -2968278.8            0   -2879284.8    51591.936 
    2550     797.9764   -2968404.7            0   -2879286.2    51537.781 
    2600    798.45519   -2968458.3            0   -2879286.3    51520.823 
    2650    797.91474   -2968396.9            0   -2879285.3    51536.649 
    2700    797.34466   -2968332.7            0   -2879284.7    51562.154 
    2750    797.09682   -2968304.7            0   -2879284.4    51572.894 
    2800    797.18266   -2968314.1            0   -2879284.3    51568.465 
    2850    798.67865   -2968482.1            0   -2879285.2    51511.163 
    2900    796.75254   -2968265.6            0   -2879283.8    51589.688 
    2950    797.45119   -2968345.2            0   -2879285.4    51554.004 
    3000    798.16019   -2968423.8            0   -2879284.8    51532.637 
    3050    797.97209   -2968402.8            0   -2879284.7    51533.638 
    3100    797.83536   -2968386.4            0   -2879283.7     51548.49 
    3150    797.98602   -2968403.6            0     -2879284    51533.491 
    3200    797.44014   -2968341.9            0   -2879283.3    51562.311 
    3250    798.21467   -2968429.2            0     -2879284    51534.182 
    3300    797.30972     -2968327            0     -2879283    51558.399 
    3350    797.98726   -2968402.7            0     -2879283    51531.612 
    3400    798.52722   -2968463.4            0   -2879283.3     51513.85 
    3450     797.6943   -2968369.4            0   -2879282.4    51556.075 
    3500    797.96746   -2968400.8            0   -2879283.3    51543.741 
    3550    797.36463   -2968331.9            0   -2879281.8    51573.079 
    3600    798.01378     -2968406            0   -2879283.4    51532.054 
    3650    797.55552   -2968353.2            0   -2879281.7    51554.233 
    3700    798.00295   -2968403.2            0   -2879281.7    51546.352 
    3750     798.1395   -2968419.2            0   -2879282.5    51533.259 
    3800    796.96552   -2968286.7            0   -2879281.1    51579.695 
    3850    797.74947   -2968374.2            0     -2879281     51554.66 
    3900    797.66551   -2968364.7            0   -2879280.9    51558.343 
    3950    797.87101   -2968388.1            0   -2879281.3    51528.468 
    4000    798.05576   -2968409.1            0   -2879281.7    51525.723 
    4050    798.30599   -2968437.3            0     -2879282    51538.306 
    4100    797.89689   -2968390.6            0     -2879281    51549.172 
    4150    797.96202   -2968397.8            0   -2879280.9    51551.165 
    4200    797.54342   -2968350.8            0   -2879280.6    51559.367 
    4250    798.03467   -2968405.3            0   -2879280.3    51534.529 
    4300    797.24694   -2968317.3            0   -2879280.2    51574.276 
    4350    797.89038   -2968389.7            0   -2879280.8    51549.143 
    4400    797.80318   -2968379.7            0   -2879280.5     51551.23 
    4450    797.65543   -2968363.1            0   -2879280.4    51556.858 
    4500    797.44271   -2968338.7            0   -2879279.8    51562.802 
    4550    798.01793   -2968403.3            0   -2879280.1    51533.817 
    4600    797.23689   -2968315.2            0   -2879279.3    51568.173 
    4650    798.51988   -2968460.1            0   -2879280.9    51514.003 
    4700    797.94624   -2968394.8            0   -2879279.6    51539.719 
    4750    797.65987   -2968362.7            0   -2879279.5    51552.033 
    4800    796.95037   -2968283.1            0   -2879279.2    51574.434 
    4850    798.53575   -2968461.2            0   -2879280.2    51517.101 
    4900    797.16183   -2968305.8            0   -2879278.3    51573.796 
    4950    797.73635   -2968370.6            0   -2879278.9    51549.225 
    5000    798.14148   -2968415.9            0     -2879279    51535.083 
    5050    797.38994   -2968331.2            0   -2879278.2     51560.76 
    5100    798.17048   -2968418.6            0   -2879278.4    51525.155 
    5150    797.56414     -2968350            0   -2879277.5    51560.382 
    5200    798.22411   -2968424.3            0   -2879278.1    51535.946 
    5250    798.28404   -2968430.9            0     -2879278    51524.977 
    5300    797.78308   -2968374.9            0     -2879278    51547.688 
    5350    798.46221   -2968451.1            0   -2879278.3    51529.807 
    5400     797.5728   -2968351.3            0   -2879277.9    51560.274 
    5450    799.06353   -2968517.7            0   -2879277.8    51498.705 
    5500    797.67218   -2968361.6            0     -2879277    51563.729 
    5550    797.77141   -2968372.1            0   -2879276.4    51556.042 
    5600    798.35955   -2968438.3            0     -2879277     51526.39 
    5650    797.57696   -2968350.2            0   -2879276.3    51558.696 
    5700    797.75883   -2968370.6            0   -2879276.4      51557.3 
    5750    797.10806   -2968296.8            0   -2879275.3     51574.86 
    5800    798.71648   -2968477.6            0   -2879276.4    51513.561 
    5850    798.37982   -2968439.3            0   -2879275.8    51525.746 
    5900    799.04208   -2968513.8            0   -2879276.2    51504.498 
    5950     798.4035   -2968441.4            0   -2879275.2     51525.34 
    6000    798.31146   -2968430.6            0   -2879274.7    51529.017 
    6050    797.46585   -2968336.4            0   -2879274.9    51564.057 
    6100     798.0118   -2968397.2            0   -2879274.8    51548.564 
    6150    797.70677   -2968362.3            0   -2879273.9    51557.064 
    6200    797.51779   -2968341.3            0     -2879274    51562.515 
    6250    797.63303   -2968353.9            0   -2879273.7    51566.679 
    6300    798.34579   -2968433.5            0   -2879273.7    51525.033 
    6350    797.73021   -2968364.9            0   -2879273.9    51548.558 
    6400    798.40168   -2968440.6            0   -2879274.6    51534.123 
    6450    798.90318   -2968496.6            0   -2879274.6    51512.535 
    6500    797.96275   -2968390.1            0   -2879273.1    51553.332 
    6550    797.86915   -2968379.8            0   -2879273.3    51544.932 
    6600    797.79395   -2968371.2            0     -2879273    51553.855 
    6650    797.85675   -2968378.2            0     -2879273    51548.155 
    6700    797.46445   -2968332.7            0   -2879271.3    51574.737 
    6750    797.34165   -2968319.2            0   -2879271.5    51565.895 
    6800    797.66549   -2968355.8            0     -2879272    51562.003 
    6850    796.75609   -2968253.6            0   -2879271.4    51582.637 
    6900    796.99658     -2968280            0     -2879271    51588.368 
    6950    797.97767   -2968390.8            0   -2879272.1    51552.635 
    7000    798.08171   -2968402.5            0   -2879272.3    51539.662 
    7050    797.58729   -2968345.8            0   -2879270.8    51565.314 
    7100    798.15178   -2968410.2            0   -2879272.1     51531.26 
    7150    798.18599   -2968413.7            0   -2879271.8    51535.761 
    7200     797.7153   -2968360.2            0   -2879270.9    51559.602 
    7250     797.7994   -2968369.6            0   -2879270.8    51557.589 
    7300    798.68592     -2968469            0   -2879271.3    51521.524 
    7350    798.96118   -2968499.6            0   -2879271.2    51503.836 
    7400     798.3095   -2968427.3            0   -2879271.6    51523.851 
    7450     797.8865   -2968379.4            0   -2879270.9    51550.091 
    7500    796.97397   -2968275.4            0   -2879268.8    51592.192 
    7550    798.06359   -2968398.3            0     -2879270     51533.61 
    7600    798.25411   -2968420.4            0   -2879270.9    51530.261 
    7650    798.81853   -2968483.5            0   -2879270.9    51513.374 
    7700    798.28478   -2968423.3            0   -2879270.4    51533.368 
    7750    798.54608   -2968452.3            0   -2879270.1    51529.857 
    7800    798.56732   -2968455.3            0   -2879270.8    51526.462 
    7850    796.99904   -2968278.4            0     -2879269    51585.687 
    7900     797.4772   -2968331.8            0     -2879269    51558.963 
    7950    798.08312   -2968399.4            0     -2879269    51537.227 
    8000    798.17731   -2968409.5            0   -2879268.6    51541.173 
    8050    797.52073   -2968335.7            0   -2879268.1    51569.652 
    8100    798.21905   -2968414.5            0   -2879268.9    51528.624 
    8150    797.75179   -2968361.4            0     -2879268    51554.566 
    8200    798.21842   -2968413.8            0   -2879268.2    51536.137 
    8250    797.10113   -2968288.6            0   -2879267.8    51579.566 
    8300    797.94751   -2968383.7            0   -2879268.4    51546.876 
    8350    798.06984   -2968397.4            0   -2879268.4    51543.313 
    8400    797.26335     -2968306            0   -2879267.1    51576.968 
    8450    797.64478   -2968348.3            0   -2879266.9    51555.012 
    8500     797.3476   -2968316.1            0   -2879267.8    51567.485 
    8550    796.80419   -2968253.7            0   -2879266.1    51592.785 
    8600    798.55427   -2968451.3            0   -2879268.3    51515.971 
    8650    798.11169   -2968401.8            0   -2879268.2    51543.861 
    8700    797.01434   -2968277.2            0   -2879266.1    51594.499 
    8750    797.66431   -2968350.5            0   -2879266.8    51551.897 
    8800    798.00787     -2968389            0     -2879267    51541.357 
    8850    798.28019   -2968419.7            0   -2879267.3    51538.075 
    8900    797.87185   -2968373.2            0   -2879266.4    51563.155 
    8950    797.74484   -2968359.7            0     -2879267    51553.603 
    9000    797.66745   -2968349.8            0   -2879265.8    51562.602 
    9050    798.32855   -2968424.6            0   -2879266.7    51528.496 
    9100    797.04118   -2968279.3            0   -2879265.2    51585.017 
    9150    797.80208     -2968365            0   -2879265.9    51560.938 
    9200    798.33556   -2968424.7            0   -2879266.1    51535.428 
    9250    798.29412   -2968419.9            0   -2879265.9    51529.043 
    9300    798.24115   -2968413.4            0   -2879265.3    51541.075 
    9350    798.26197   -2968415.8            0   -2879265.4    51534.147 
    9400      797.189   -2968295.5            0   -2879264.9    51579.407 
    9450    798.22457   -2968411.1            0   -2879264.9    51531.082 
    9500    798.04929   -2968391.7            0   -2879265.1    51546.965 
    9550    797.37131     -2968315            0   -2879264.1    51575.028 
    9600    796.94278   -2968266.8            0   -2879263.8    51588.476 
    9650    797.92363   -2968377.4            0   -2879264.8    51550.048 
    9700    797.82371   -2968365.9            0   -2879264.5    51553.937 
    9750     798.7024   -2968463.7            0   -2879264.1    51523.654 
    9800    798.67838     -2968461            0   -2879264.1    51514.267 
    9850    797.67883   -2968348.6            0   -2879263.3    51558.893 
    9900    797.92533   -2968376.2            0   -2879263.4    51560.275 
    9950    797.28671   -2968304.4            0   -2879262.9    51576.596 
   10000    797.33199   -2968309.5            0   -2879262.9    51571.539 
Loop time of 122.01 on 32 procs for 10000 steps with 864000 atoms

Performance: 35.407 ns/day, 0.678 hours/ns, 81.960 timesteps/s
99.5% CPU use with 32 MPI tasks x 1 OpenMP threads

MPI task timing breakdown:
Section |  min time  |  avg time  |  max time  |%varavg| %total
---------------------------------------------------------------
Pair    | 95.677     | 96.213     | 97.359     |   3.1 | 78.86
Neigh   | 10.809     | 10.903     | 11.295     |   3.1 |  8.94
Comm    | 6.7377     | 7.7697     | 8.68       |  15.5 |  6.37
Output  | 0.027395   | 0.030738   | 0.034215   |   1.2 |  0.03
Modify  | 4.6753     | 5.0085     | 5.3546     |   7.0 |  4.10
Other   |            | 2.085      |            |       |  1.71

Nlocal:          27000 ave       27117 max       26853 min
Histogram: 1 0 3 3 4 9 5 0 5 2
Nghost:        18859.9 ave       19007 max       18743 min
Histogram: 2 5 0 5 8 5 3 3 0 1
Neighs:    1.01926e+06 ave 1.02369e+06 max 1.01208e+06 min
Histogram: 1 0 1 3 4 6 6 4 3 4

Total # of neighbors = 32616329
Ave neighs/atom = 37.750381
Neighbor list builds = 1637
Dangerous builds = 14
Total wall time: 0:02:02
Intel(R) VTune(TM) Profiler 2022.2.0 collection completed successfully. Use the "aps --report /home/ubuntu/lammps/bench/aps_result_20220703" command to generate textual and HTML reports for the profiling session.
