LAMMPS (7 Jan 2022)
  using 1 OpenMP thread(s) per MPI task
Lattice spacing in x,y,z = 3.615 3.615 3.615
Created orthogonal box = (0 0 0) to (216.9 216.9 216.9)
  1 by 1 by 1 MPI processor grid
Created 864000 atoms
  using lattice units in orthogonal box = (0 0 0) to (216.9 216.9 216.9)
  create_atoms CPU = 0.099 seconds
Reading eam potential file Cu_u3.eam with DATE: 2007-06-11
----------------------------------------------------------
Using INTEL Package without Coprocessor.
Compiler: Intel Classic C++ 20.21.5 / Intel(R) C++ g++ 9.3 mode
SIMD compiler directives: Enabled
Precision: single
----------------------------------------------------------
Neighbor list info ...
  update every 1 steps, delay 5 steps, check yes
  max neighbors/atom: 2000, page size: 100000
  master list distance cutoff = 5.95
  ghost atom cutoff = 5.95
  binsize = 2.975, bins = 73 73 73
  1 neighbor lists, perpetual/occasional/extra = 1 0 0
  (1) pair eam/intel, perpetual
      attributes: half, newton on, intel
      pair build: half/bin/newton/intel
      stencil: half/bin/3d
      bin: intel
Setting up Verlet run ...
  Unit style    : metal
  Current step  : 0
  Time step     : 0.005
Per MPI rank memory allocation (min/avg/max) = 7487 | 7487 | 7487 Mbytes
Step Temp E_pair E_mol TotEng Press 
       0         1600   -3059588.5            0   -2880899.5    18703.743 
      50    780.51281   -2966111.2            0   -2878943.1    52309.245 
     100    798.57089   -2968304.5            0   -2879119.6    51460.425 
Loop time of 66.5821 on 1 procs for 100 steps with 864000 atoms

Performance: 0.649 ns/day, 36.990 hours/ns, 1.502 timesteps/s
50.0% CPU use with 1 MPI tasks x 1 OpenMP threads

MPI task timing breakdown:
Section |  min time  |  avg time  |  max time  |%varavg| %total
---------------------------------------------------------------
Pair    | 56.082     | 56.082     | 56.082     |   0.0 | 84.23
Neigh   | 5.5981     | 5.5981     | 5.5981     |   0.0 |  8.41
Comm    | 2.1175     | 2.1175     | 2.1175     |   0.0 |  3.18
Output  | 0.0047005  | 0.0047005  | 0.0047005  |   0.0 |  0.01
Modify  | 2.0216     | 2.0216     | 2.0216     |   0.0 |  3.04
Other   |            | 0.7579     |            |       |  1.14

Nlocal:         864000 ave      864000 max      864000 min
Histogram: 1 0 0 0 0 0 0 0 0 0
Nghost:         160182 ave      160182 max      160182 min
Histogram: 1 0 0 0 0 0 0 0 0 0
Neighs:    3.25956e+07 ave 3.25956e+07 max 3.25956e+07 min
Histogram: 1 0 0 0 0 0 0 0 0 0

Total # of neighbors = 32595649
Ave neighs/atom = 37.726446
Neighbor list builds = 15
Dangerous builds = 0
Total wall time: 0:01:08
Intel(R) VTune(TM) Profiler 2022.2.0 collection completed successfully. Use the "aps --report /home/ubuntu/lammps/bench/aps_result_20220531" command to generate textual and HTML reports for the profiling session.
