LAMMPS (7 Jan 2022)
  using 1 OpenMP thread(s) per MPI task
Lattice spacing in x,y,z = 3.615 3.615 3.615
Created orthogonal box = (0 0 0) to (72.3 72.3 72.3)
  2 by 2 by 2 MPI processor grid
Created 32000 atoms
  using lattice units in orthogonal box = (0 0 0) to (72.3 72.3 72.3)
  create_atoms CPU = 0.002 seconds
Reading eam potential file Cu_u3.eam with DATE: 2007-06-11
----------------------------------------------------------
Using INTEL Package without Coprocessor.
Compiler: Intel Classic C++ 20.21.5 / Intel(R) C++ g++ 9.3 mode
SIMD compiler directives: Enabled
Precision: double
----------------------------------------------------------
Neighbor list info ...
  update every 1 steps, delay 5 steps, check yes
  max neighbors/atom: 2000, page size: 100000
  master list distance cutoff = 5.95
  ghost atom cutoff = 5.95
  binsize = 2.975, bins = 25 25 25
  1 neighbor lists, perpetual/occasional/extra = 1 0 0
  (1) pair eam/intel, perpetual
      attributes: half, newton on, intel
      pair build: half/bin/newton/intel
      stencil: half/bin/3d
      bin: intel
Setting up Verlet run ...
  Unit style    : metal
  Current step  : 0
  Time step     : 0.005
Per MPI rank memory allocation (min/avg/max) = 37.91 | 37.91 | 37.91 Mbytes
Step Temp E_pair E_mol TotEng Press 
       0         1600      -113280            0   -106662.09    18703.573 
      50    781.69049   -109873.35            0   -106640.13    52273.088 
     100      801.832    -109957.3            0   -106640.77    51322.821 
Loop time of 0.223926 on 8 procs for 100 steps with 32000 atoms

Performance: 192.921 ns/day, 0.124 hours/ns, 446.576 timesteps/s
98.7% CPU use with 8 MPI tasks x 1 OpenMP threads

MPI task timing breakdown:
Section |  min time  |  avg time  |  max time  |%varavg| %total
---------------------------------------------------------------
Pair    | 0.17427    | 0.17528    | 0.17701    |   0.2 | 78.28
Neigh   | 0.017874   | 0.018214   | 0.01863    |   0.2 |  8.13
Comm    | 0.021621   | 0.022894   | 0.023951   |   0.6 | 10.22
Output  | 8.5171e-05 | 9.3254e-05 | 0.00010777 |   0.0 |  0.04
Modify  | 0.0043399  | 0.0049614  | 0.0056287  |   0.7 |  2.22
Other   |            | 0.00248    |            |       |  1.11

Nlocal:           4000 ave        4016 max        3983 min
Histogram: 1 0 1 1 0 2 1 0 1 1
Nghost:        5840.62 ave        5858 max        5825 min
Histogram: 1 1 0 2 1 0 2 0 0 1
Neighs:         150973 ave      151488 max      150424 min
Histogram: 2 0 0 0 3 0 0 0 2 1

Total # of neighbors = 1207784
Ave neighs/atom = 37.74325
Neighbor list builds = 13
Dangerous builds = 0
Total wall time: 0:00:00
Intel(R) VTune(TM) Profiler 2022.2.0 collection completed successfully. Use the "aps --report /home/ubuntu/lammps/bench/aps_result_20220601" command to generate textual and HTML reports for the profiling session.
