LAMMPS (7 Jan 2022)
  using 1 OpenMP thread(s) per MPI task
Lattice spacing in x,y,z = 3.615 3.615 3.615
Created orthogonal box = (0 0 0) to (289.2 289.2 289.2)
  4 by 4 by 4 MPI processor grid
Created 2048000 atoms
  using lattice units in orthogonal box = (0 0 0) to (289.2 289.2 289.2)
  create_atoms CPU = 0.007 seconds
Reading eam potential file Cu_u3.eam with DATE: 2007-06-11
----------------------------------------------------------
Using INTEL Package without Coprocessor.
Compiler: Intel Classic C++ 20.21.5 / Intel(R) C++ g++ 9.3 mode
SIMD compiler directives: Enabled
Precision: mixed
----------------------------------------------------------
Neighbor list info ...
  update every 1 steps, delay 5 steps, check yes
  max neighbors/atom: 2000, page size: 100000
  master list distance cutoff = 5.95
  ghost atom cutoff = 5.95
  binsize = 2.975, bins = 98 98 98
  1 neighbor lists, perpetual/occasional/extra = 1 0 0
  (1) pair eam/intel, perpetual
      attributes: half, newton on, intel
      pair build: half/bin/newton/intel
      stencil: half/bin/3d
      bin: intel
Setting up Verlet run ...
  Unit style    : metal
  Current step  : 0
  Time step     : 0.005
Per MPI rank memory allocation (min/avg/max) = 264.1 | 284.2 | 304.8 Mbytes
Step Temp E_pair E_mol TotEng Press 
       0         1600   -7249918.3            0   -6826358.9    18704.056 
      50    780.81541   -7031660.7            0   -6824959.7    52291.357 
     100    798.21778   -7036295.2            0   -6824987.2     51479.46 
     150    797.44761   -7036092.2            0   -6824988.1    51537.976 
     200    797.94536   -7036225.3            0   -6824989.5    51521.864 
     250    797.47918   -7036101.1            0   -6824988.7    51545.011 
     300     798.5034   -7036374.1            0   -6824990.6    51508.823 
     350    797.57284   -7036125.2            0     -6824988    51546.552 
     400    797.67079   -7036151.8            0   -6824988.7    51542.639 
     450    798.03815   -7036249.6            0   -6824989.3    51530.835 
     500    797.62471   -7036139.8            0   -6824988.8    51552.165 
     550    797.88102     -7036207            0   -6824988.2    51537.683 
     600    798.00933   -7036241.7            0     -6824989    51526.877 
     650    797.37497     -7036072            0   -6824987.2     51553.94 
     700    797.64907   -7036144.3            0   -6824986.9    51546.375 
     750    797.41626     -7036082            0   -6824986.3    51554.352 
     800     796.9946   -7035969.9            0   -6824985.7    51570.478 
     850    797.57824   -7036124.7            0   -6824986.1    51550.417 
     900    797.44449   -7036088.6            0   -6824985.4    51556.787 
     950    797.96123   -7036226.1            0   -6824986.1    51532.718 
    1000    797.30858   -7036050.9            0   -6824983.7    51568.079 
    1050    797.51731   -7036107.3            0   -6824984.8    51547.848 
    1100    797.22949   -7036029.2            0   -6824982.9    51564.962 
    1150    798.04347     -7036247            0   -6824985.2    51532.959 
    1200    798.03842   -7036243.7            0   -6824983.3    51539.954 
    1250    797.50189   -7036100.4            0     -6824982    51557.445 
    1300      797.849   -7036192.8            0   -6824982.5    51540.433 
    1350    797.75473   -7036167.9            0   -6824982.5    51544.382 
    1400    797.44044   -7036083.6            0   -6824981.4    51561.422 
    1450    797.52895     -7036107            0   -6824981.5     51547.02 
    1500    798.07211   -7036251.4            0   -6824982.1    51534.613 
    1550    797.29764   -7036044.5            0   -6824980.1    51569.065 
    1600    797.37335   -7036063.7            0   -6824979.3    51565.089 
    1650    797.66598   -7036142.2            0   -6824980.3    51545.777 
    1700    796.97217     -7035957            0   -6824978.9    51573.915 
    1750    798.12134   -7036263.2            0   -6824980.8     51537.44 
    1800     797.8721   -7036196.1            0   -6824979.7    51540.935 
    1850    798.05986     -7036247            0   -6824980.8    51533.892 
    1900    798.18705     -7036279            0   -6824979.2    51528.019 
    1950    797.91825   -7036207.1            0   -6824978.4    51537.031 
    2000    797.83463   -7036183.9            0   -6824977.4    51544.288 
    2050    797.32028     -7036048            0   -6824977.7    51560.364 
    2100    798.61339   -7036391.1            0   -6824978.4    51514.515 
    2150    798.25737   -7036296.1            0   -6824977.7    51521.986 
    2200    797.37269     -7036061            0   -6824976.8    51557.232 
    2250    797.82355   -7036180.3            0   -6824976.7    51542.224 
    2300    797.96697   -7036218.9            0   -6824977.4    51533.621 
    2350    797.78128   -7036168.1            0   -6824975.8    51546.548 
    2400    797.82753   -7036179.7            0   -6824975.1    51543.362 
    2450    798.42471   -7036339.4            0   -6824976.7    51515.422 
    2500      797.752   -7036159.8            0   -6824975.2     51543.01 
    2550    797.35453   -7036053.3            0   -6824973.9    51567.413 
    2600    798.31772   -7036308.9            0   -6824974.5    51527.219 
    2650    797.61168   -7036120.4            0   -6824972.9    51553.133 
    2700    797.08683   -7035979.9            0   -6824971.3    51576.275 
    2750    797.63773   -7036126.4            0     -6824972    51547.984 
    2800     797.2205   -7036015.7            0   -6824971.8    51564.192 
    2850    797.94659   -7036207.8            0   -6824971.7    51538.826 
    2900    797.45333   -7036076.7            0   -6824971.1      51560.2 
    2950    797.94207     -7036207            0   -6824972.1    51539.995 
    3000     798.2415   -7036284.9            0   -6824970.7    51526.719 
    3050    797.70361   -7036141.1            0   -6824969.3    51549.803 
    3100    797.74108   -7036150.3            0   -6824968.6    51557.909 
    3150    797.67466   -7036133.5            0   -6824969.3    51550.127 
    3200    797.92965   -7036200.4            0   -6824968.7    51534.972 
    3250    797.64006   -7036122.3            0   -6824967.3    51557.598 
    3300    798.13671   -7036254.7            0   -6824968.3    51529.357 
    3350    797.15525   -7035992.9            0   -6824966.3    51567.854 
    3400    797.37179   -7036049.1            0   -6824965.1    51559.887 
    3450    797.45371   -7036071.3            0   -6824965.7    51562.658 
    3500    797.47035   -7036075.2            0   -6824965.2    51565.238 
    3550    797.58791   -7036105.6            0   -6824964.5    51556.859 
    3600    797.94853   -7036200.5            0   -6824963.8     51546.02 
    3650    798.04556   -7036226.4            0   -6824964.1    51531.748 
    3700    797.93422   -7036196.2            0   -6824963.4      51535.1 
    3750    797.42837   -7036060.9            0   -6824961.9    51553.804 
    3800    797.72841   -7036139.7            0   -6824961.4    51556.791 
    3850     798.0221   -7036218.7            0   -6824962.6    51538.934 
    3900    797.54581   -7036090.4            0   -6824960.3    51564.291 
    3950    797.83877   -7036169.1            0   -6824961.5    51548.299 
    4000    798.13045     -7036246            0   -6824961.2    51533.675 
    4050    797.59652   -7036103.6            0   -6824960.1    51554.662 
    4100    798.44621   -7036329.5            0   -6824961.1    51520.084 
    4150    797.84044   -7036167.2            0   -6824959.2    51546.853 
    4200    798.24607   -7036275.6            0   -6824960.2    51531.709 
    4250    797.47465   -7036068.5            0   -6824957.3     51567.01 
    4300    797.99229   -7036207.3            0   -6824959.1    51535.496 
    4350    797.09871   -7035968.1            0   -6824956.4    51577.181 
    4400    798.17742   -7036256.2            0     -6824959    51530.268 
    4450    797.66498     -7036118            0   -6824956.5      51555.4 
    4500    798.29427   -7036285.5            0   -6824957.4    51533.421 
    4550    797.80537   -7036155.3            0   -6824956.6    51546.661 
    4600    797.63888     -7036110            0   -6824955.3    51554.028 
    4650     798.1302   -7036240.7            0   -6824955.9    51538.622 
    4700    798.14276     -7036243            0   -6824954.9    51534.856 
    4750    798.49084   -7036336.8            0   -6824956.6     51524.13 
    4800    797.65967   -7036115.1            0     -6824955     51553.87 
    4850    798.00056   -7036207.2            0   -6824956.8    51546.377 
    4900    797.74827   -7036139.1            0   -6824955.4    51555.744 
    4950    797.77942   -7036145.8            0     -6824954    51547.043 
    5000    797.57779   -7036090.4            0   -6824951.9    51565.828 
    5050    797.72135   -7036129.8            0   -6824953.3    51551.489 
    5100    797.80229   -7036149.9            0     -6824952    51539.635 
    5150    798.20047     -7036255            0   -6824951.7    51529.937 
    5200    797.94453   -7036186.7            0   -6824951.1    51540.244 
    5250    797.99808   -7036199.8            0   -6824950.1    51544.377 
    5300    797.54449   -7036078.6            0   -6824948.9     51564.54 
    5350    797.69658   -7036118.5            0   -6824948.6    51552.365 
    5400    798.00664   -7036201.2            0   -6824949.2    51536.828 
    5450    797.79394   -7036144.1            0   -6824948.4    51546.436 
    5500    797.85575   -7036161.1            0     -6824949    51544.529 
    5550    797.63566   -7036101.6            0   -6824947.8    51552.784 
    5600    798.23294   -7036258.9            0     -6824947    51532.245 
    5650    797.24075   -7035994.9            0   -6824945.7    51572.676 
    5700    797.37459   -7036029.7            0     -6824945    51572.557 
    5750    797.70534   -7036118.6            0   -6824946.3    51551.683 
    5800    797.88098   -7036164.8            0     -6824946     51544.65 
    5850    798.12066   -7036228.7            0   -6824946.5    51535.674 
    5900     797.9356   -7036178.8            0   -6824945.6     51541.13 
    5950     797.7093     -7036118            0   -6824944.7    51552.129 
    6000    797.86112   -7036157.8            0   -6824944.3    51547.645 
    6050     797.2751   -7036000.7            0   -6824942.3     51574.69 
    6100    797.72916   -7036121.4            0   -6824942.8    51551.812 
    6150    797.51242   -7036063.7            0   -6824942.5     51564.86 
    6200    798.30703   -7036275.7            0   -6824944.2    51529.903 
    6250    797.26372   -7035998.6            0   -6824943.3    51569.564 
    6300    798.02794   -7036200.5            0   -6824942.8    51541.139 
    6350    797.22285     -7035985            0   -6824940.5     51579.61 
    6400    797.63586   -7036095.4            0   -6824941.6    51553.605 
    6450    797.39221   -7036029.5            0   -6824940.1     51566.17 
    6500    797.68575     -7036107            0   -6824939.9    51555.224 
    6550    797.69372   -7036108.4            0   -6824939.2    51559.164 
    6600    797.86054   -7036152.7            0   -6824939.3      51548.5 
    6650    797.55553   -7036071.4            0   -6824938.8    51560.052 
    6700    797.80241   -7036136.8            0   -6824938.8    51547.152 
    6750    798.00981     -7036192            0   -6824939.2     51548.54 
    6800    797.93376   -7036171.1            0   -6824938.4    51551.775 
    6850    797.48972   -7036051.9            0   -6824936.8    51559.907 
    6900     798.2183   -7036246.4            0   -6824938.3    51533.092 
    6950    797.31189   -7036004.1            0     -6824936    51575.826 
    7000     797.9646   -7036178.1            0   -6824937.2    51551.393 
    7050    797.59156   -7036079.1            0     -6824937    51562.103 
    7100    798.05803   -7036202.2            0   -6824936.6    51544.328 
    7150     797.7379   -7036117.2            0   -6824936.3    51556.591 
    7200    797.62768   -7036086.8            0   -6824935.1    51556.042 
    7250     797.7573   -7036120.7            0   -6824934.7    51554.842 
    7300    797.58043   -7036073.2            0     -6824934     51557.75 
    7350     798.0698   -7036203.2            0   -6824934.4    51539.661 
    7400    798.00206   -7036184.4            0   -6824933.6    51544.945 
    7450     798.3247   -7036270.4            0   -6824934.2    51524.644 
    7500    797.10878   -7035945.8            0   -6824931.4    51575.791 
    7550    797.90096   -7036156.6            0   -6824932.6    51547.678 
    7600    798.28145   -7036257.7            0   -6824932.9    51527.241 
    7650    797.84502   -7036141.6            0   -6824932.3     51541.31 
    7700    797.65386     -7036090            0   -6824931.4    51563.109 
    7750    797.68934   -7036099.1            0     -6824931    51566.464 
    7800    796.99601   -7035913.9            0   -6824929.4    51587.783 
    7850    796.99017     -7035912            0   -6824929.1    51588.569 
    7900    798.02699   -7036187.3            0   -6824929.9    51546.733 
    7950    798.17445   -7036228.3            0   -6824931.8    51542.991 
    8000    797.68449   -7036096.9            0   -6824930.2    51559.895 
    8050    797.78984   -7036123.3            0   -6824928.7     51556.94 
    8100    797.73692   -7036109.2            0   -6824928.6    51566.427 
    8150    797.70074   -7036100.2            0   -6824929.2    51557.921 
    8200    797.67081     -7036091            0   -6824927.9    51562.941 
    8250     798.1861   -7036228.1            0   -6824928.6    51543.207 
    8300    797.48871   -7036042.4            0   -6824927.4    51567.036 
    8350    797.73364   -7036107.8            0     -6824928    51558.209 
    8400    798.48875   -7036308.9            0   -6824929.2    51523.517 
    8450    797.92124   -7036156.3            0   -6824926.9    51556.766 
    8500     797.9406   -7036162.7            0   -6824928.1    51553.848 
    8550    798.40613   -7036284.9            0   -6824927.1    51532.919 
    8600     797.8018   -7036124.6            0   -6824926.8    51550.501 
    8650    797.41294   -7036020.1            0   -6824925.2     51564.71 
    8700     797.8485   -7036136.1            0   -6824925.9    51548.782 
    8750    797.88624     -7036145            0   -6824924.9    51544.182 
    8800    797.72123   -7036101.2            0   -6824924.8    51553.353 
    8850    797.65929   -7036084.2            0   -6824924.1    51557.464 
    8900    798.17633   -7036222.2            0   -6824925.2    51536.657 
    8950    797.81918   -7036127.3            0   -6824924.9    51557.615 
    9000    797.66213     -7036084            0   -6824923.2    51561.473 
    9050    797.99865   -7036173.8            0   -6824923.9     51547.46 
    9100    797.87909   -7036141.5            0   -6824923.2    51548.526 
    9150    798.66784   -7036351.1            0   -6824924.1    51523.921 
    9200    797.41605   -7036015.9            0   -6824920.2    51577.368 
    9250    798.03655     -7036181            0   -6824921.1     51546.69 
    9300    797.14419     -7035943            0   -6824919.2    51580.886 
    9350    797.77794     -7036111            0   -6824919.5    51558.102 
    9400    797.50348   -7036037.5            0   -6824918.7    51568.044 
    9450    797.61733   -7036067.6            0   -6824918.6    51558.993 
    9500    798.56582   -7036320.1            0   -6824920.1    51514.522 
    9550    796.86237   -7035865.5            0   -6824916.4    51597.752 
    9600    798.38702   -7036273.3            0   -6824920.6    51524.387 
    9650    797.76829   -7036107.3            0   -6824918.4    51553.386 
    9700    797.94191   -7036152.2            0   -6824917.3    51550.316 
    9750    798.24964   -7036234.6            0   -6824918.2    51540.437 
    9800    798.13444   -7036203.6            0   -6824917.8    51541.658 
    9850    797.77829   -7036109.1            0   -6824917.5    51556.997 
    9900    797.91705   -7036145.8            0   -6824917.5    51554.609 
    9950    797.95055   -7036155.6            0   -6824918.4    51543.378 
   10000    797.86973   -7036131.8            0     -6824916    51555.635 
Loop time of 181.171 on 64 procs for 10000 steps with 2048000 atoms

Performance: 23.845 ns/day, 1.007 hours/ns, 55.196 timesteps/s
98.9% CPU use with 64 MPI tasks x 1 OpenMP threads

MPI task timing breakdown:
Section |  min time  |  avg time  |  max time  |%varavg| %total
---------------------------------------------------------------
Pair    | 130.91     | 134        | 137.43     |  11.6 | 73.96
Neigh   | 14.858     | 15.163     | 16.707     |   7.0 |  8.37
Comm    | 13.676     | 16.48      | 20.69      |  39.0 |  9.10
Output  | 0.054095   | 0.080084   | 0.1292     |   7.2 |  0.04
Modify  | 8.9259     | 11.041     | 12.445     |  22.5 |  6.09
Other   |            | 4.412      |            |       |  2.44

Nlocal:          32000 ave       32181 max       31813 min
Histogram: 1 1 4 8 20 12 11 4 2 1
Nghost:        19909.9 ave       20096 max       19730 min
Histogram: 1 2 4 11 12 20 9 3 1 1
Neighs:    1.20801e+06 ave 1.21833e+06 max  1.1965e+06 min
Histogram: 1 3 8 9 8 8 10 11 5 1

Total # of neighbors = 77312466
Ave neighs/atom = 37.750228
Neighbor list builds = 1669
Dangerous builds = 31
Total wall time: 0:03:01
Intel(R) VTune(TM) Profiler 2022.2.0 collection completed successfully. Use the "aps --report /home/ubuntu/lammps/bench/aps_result_20220703" command to generate textual and HTML reports for the profiling session.
