LAMMPS (7 Jan 2022)
  using 1 OpenMP thread(s) per MPI task
Lattice spacing in x,y,z = 3.615 3.615 3.615
Created orthogonal box = (0 0 0) to (72.3 72.3 72.3)
  1 by 1 by 2 MPI processor grid
Created 32000 atoms
  using lattice units in orthogonal box = (0 0 0) to (72.3 72.3 72.3)
  create_atoms CPU = 0.002 seconds
Reading eam potential file Cu_u3.eam with DATE: 2007-06-11
----------------------------------------------------------
Using INTEL Package without Coprocessor.
Compiler: Intel Classic C++ 20.21.5 / Intel(R) C++ g++ 9.3 mode
SIMD compiler directives: Enabled
Precision: double
----------------------------------------------------------
Neighbor list info ...
  update every 1 steps, delay 5 steps, check yes
  max neighbors/atom: 2000, page size: 100000
  master list distance cutoff = 5.95
  ghost atom cutoff = 5.95
  binsize = 2.975, bins = 25 25 25
  1 neighbor lists, perpetual/occasional/extra = 1 0 0
  (1) pair eam/intel, perpetual
      attributes: half, newton on, intel
      pair build: half/bin/newton/intel
      stencil: half/bin/3d
      bin: intel
Setting up Verlet run ...
  Unit style    : metal
  Current step  : 0
  Time step     : 0.005
Per MPI rank memory allocation (min/avg/max) = 143.6 | 143.6 | 143.6 Mbytes
Step Temp E_pair E_mol TotEng Press 
       0         1600      -113280            0   -106662.09    18703.573 
      50    781.69049   -109873.35            0   -106640.13    52273.088 
     100      801.832    -109957.3            0   -106640.77    51322.821 
Loop time of 4.17967 on 2 procs for 100 steps with 32000 atoms

Performance: 10.336 ns/day, 2.322 hours/ns, 23.925 timesteps/s
38.1% CPU use with 2 MPI tasks x 1 OpenMP threads

MPI task timing breakdown:
Section |  min time  |  avg time  |  max time  |%varavg| %total
---------------------------------------------------------------
Pair    | 2.0402     | 2.1226     | 2.2051     |   5.7 | 50.78
Neigh   | 0.068148   | 0.10218    | 0.13621    |  10.6 |  2.44
Comm    | 1.7749     | 1.8014     | 1.8279     |   2.0 | 43.10
Output  | 0.052021   | 0.06001    | 0.068      |   3.3 |  1.44
Modify  | 0.01011    | 0.010118   | 0.010127   |   0.0 |  0.24
Other   |            | 0.08329    |            |       |  1.99

Nlocal:          16000 ave       16001 max       15999 min
Histogram: 1 0 0 0 0 0 0 0 0 1
Nghost:        13819.5 ave       13820 max       13819 min
Histogram: 1 0 0 0 0 0 0 0 0 1
Neighs:         603892 ave      604032 max      603752 min
Histogram: 1 0 0 0 0 0 0 0 0 1

Total # of neighbors = 1207784
Ave neighs/atom = 37.74325
Neighbor list builds = 13
Dangerous builds = 0
Total wall time: 0:00:04
Intel(R) VTune(TM) Profiler 2022.2.0 collection completed successfully. Use the "aps --report /home/ubuntu/lammps/bench/aps_result_20220531" command to generate textual and HTML reports for the profiling session.
