LAMMPS (7 Jan 2022)
  using 1 OpenMP thread(s) per MPI task
Lattice spacing in x,y,z = 3.615 3.615 3.615
Created orthogonal box = (0 0 0) to (216.9 216.9 216.9)
  1 by 2 by 2 MPI processor grid
Created 864000 atoms
  using lattice units in orthogonal box = (0 0 0) to (216.9 216.9 216.9)
  create_atoms CPU = 0.037 seconds
Reading eam potential file Cu_u3.eam with DATE: 2007-06-11
----------------------------------------------------------
Using INTEL Package without Coprocessor.
Compiler: Intel Classic C++ 20.21.5 / Intel(R) C++ g++ 9.3 mode
SIMD compiler directives: Enabled
Precision: double
----------------------------------------------------------
Neighbor list info ...
  update every 1 steps, delay 5 steps, check yes
  max neighbors/atom: 2000, page size: 100000
  master list distance cutoff = 5.95
  ghost atom cutoff = 5.95
  binsize = 2.975, bins = 73 73 73
  1 neighbor lists, perpetual/occasional/extra = 1 0 0
  (1) pair eam/intel, perpetual
      attributes: half, newton on, intel
      pair build: half/bin/newton/intel
      stencil: half/bin/3d
      bin: intel
Setting up Verlet run ...
  Unit style    : metal
  Current step  : 0
  Time step     : 0.005
Per MPI rank memory allocation (min/avg/max) = 1890 | 1890 | 1890 Mbytes
Step Temp E_pair E_mol TotEng Press 
       0         1600     -3058560            0     -2879871    18704.136 
      50    780.51286   -2966447.6            0   -2879279.4    52309.328 
     100    798.57089     -2968477            0   -2879292.1    51460.466 
Loop time of 9.10461 on 4 procs for 100 steps with 864000 atoms

Performance: 4.745 ns/day, 5.058 hours/ns, 10.983 timesteps/s
99.2% CPU use with 4 MPI tasks x 1 OpenMP threads

MPI task timing breakdown:
Section |  min time  |  avg time  |  max time  |%varavg| %total
---------------------------------------------------------------
Pair    | 7.3912     | 7.4463     | 7.5144     |   1.8 | 81.79
Neigh   | 0.80232    | 0.81768    | 0.84098    |   1.6 |  8.98
Comm    | 0.39859    | 0.45768    | 0.5216     |   7.1 |  5.03
Output  | 0.0011682  | 0.0012406  | 0.0013083  |   0.2 |  0.01
Modify  | 0.26538    | 0.27753    | 0.28768    |   1.8 |  3.05
Other   |            | 0.1042     |            |       |  1.14

Nlocal:         216000 ave      216132 max      215866 min
Histogram: 1 0 0 1 0 0 1 0 0 1
Nghost:        69046.8 ave       69179 max       68917 min
Histogram: 1 0 0 1 0 0 1 0 0 1
Neighs:    8.14891e+06 ave 8.15533e+06 max 8.14241e+06 min
Histogram: 1 0 0 0 1 1 0 0 0 1

Total # of neighbors = 32595623
Ave neighs/atom = 37.726416
Neighbor list builds = 15
Dangerous builds = 0
Total wall time: 0:00:09
Intel(R) VTune(TM) Profiler 2022.2.0 collection completed successfully. Use the "aps --report /home/ubuntu/lammps/bench/aps_result_20220601" command to generate textual and HTML reports for the profiling session.
