LAMMPS (7 Jan 2022)
  using 1 OpenMP thread(s) per MPI task
Lattice spacing in x,y,z = 3.615 3.615 3.615
Created orthogonal box = (0 0 0) to (216.9 216.9 216.9)
  1 by 1 by 1 MPI processor grid
Created 864000 atoms
  using lattice units in orthogonal box = (0 0 0) to (216.9 216.9 216.9)
  create_atoms CPU = 0.084 seconds
Reading eam potential file Cu_u3.eam with DATE: 2007-06-11
----------------------------------------------------------
Using INTEL Package without Coprocessor.
Compiler: Intel Classic C++ 20.21.5 / Intel(R) C++ g++ 9.3 mode
SIMD compiler directives: Enabled
Precision: mixed
----------------------------------------------------------
Neighbor list info ...
  update every 1 steps, delay 5 steps, check yes
  max neighbors/atom: 2000, page size: 100000
  master list distance cutoff = 5.95
  ghost atom cutoff = 5.95
  binsize = 2.975, bins = 73 73 73
  1 neighbor lists, perpetual/occasional/extra = 1 0 0
  (1) pair eam/intel, perpetual
      attributes: half, newton on, intel
      pair build: half/bin/newton/intel
      stencil: half/bin/3d
      bin: intel
Setting up Verlet run ...
  Unit style    : metal
  Current step  : 0
  Time step     : 0.005
Per MPI rank memory allocation (min/avg/max) = 7504 | 7504 | 7504 Mbytes
Step Temp E_pair E_mol TotEng Press 
       0         1600   -3058559.2            0   -2879870.1    18704.286 
      50    780.51283   -2966447.5            0   -2879279.4    52309.312 
     100    798.57094   -2968476.9            0     -2879292    51460.464 
     150    796.91968   -2968292.3            0   -2879291.8    51559.456 
     200    797.22377   -2968326.6            0   -2879292.2     51553.43 
     250    797.26168   -2968330.9            0   -2879292.2    51553.185 
     300    797.92833   -2968405.3            0   -2879292.2    51531.604 
     350    797.55175     -2968363            0   -2879291.9    51545.508 
     400    798.29694   -2968447.6            0   -2879293.3    51519.141 
     450    798.23963   -2968440.9            0     -2879293    51516.936 
     500    797.75633   -2968385.3            0   -2879291.4    51542.952 
     550    796.85168   -2968284.2            0   -2879291.3    51587.752 
     600    798.25421   -2968441.2            0   -2879291.7    51515.191 
     650    797.35561   -2968339.5            0   -2879290.4    51552.147 
     700    797.40848   -2968345.8            0   -2879290.7    51554.408 
     750    797.52354   -2968359.1            0   -2879291.1    51546.903 
     800    798.06045     -2968419            0   -2879291.1    51533.304 
     850    797.30724   -2968334.4            0   -2879290.6    51570.518 
     900    797.47218   -2968353.7            0   -2879291.5    51541.179 
     950    798.04565   -2968417.1            0   -2879290.8    51527.221 
    1000    797.33744   -2968336.9            0   -2879289.8    51562.277 
    1050    797.89511     -2968399            0   -2879289.6    51535.227 
    1100    797.09997   -2968309.3            0   -2879288.7    51573.098 
    1150    797.56551   -2968362.3            0   -2879289.7    51558.131 
    1200    796.61145   -2968255.1            0     -2879289    51585.978 
    1250    797.74312   -2968381.4            0     -2879289    51544.092 
    1300    796.91596   -2968288.7            0   -2879288.6    51582.285 
    1350    798.47177   -2968463.5            0   -2879289.7    51517.271 
    1400    797.75078   -2968383.2            0   -2879289.9    51548.718 
    1450    797.92003   -2968400.6            0   -2879288.4    51544.758 
    1500    797.02648     -2968300            0   -2879287.6    51586.172 
    1550    798.09748   -2968421.9            0   -2879289.9    51528.598 
    1600    798.73511   -2968492.8            0   -2879289.6    51502.352 
    1650    798.09057   -2968420.5            0   -2879289.2    51536.408 
    1700    797.37231     -2968340            0   -2879288.9    51557.748 
    1750    797.43981   -2968347.1            0   -2879288.5    51560.261 
    1800    797.74083   -2968380.3            0   -2879288.1    51540.422 
    1850    798.14629   -2968426.2            0   -2879288.7    51534.975 
    1900    798.54949   -2968471.1            0   -2879288.5     51512.29 
    1950    797.74629   -2968380.4            0   -2879287.6    51544.406 
    2000    797.83311   -2968390.5            0     -2879288    51540.864 
    2050    798.20955     -2968433            0   -2879288.5     51532.36 
    2100    798.11399   -2968421.9            0     -2879288    51528.567 
    2150    797.83359     -2968390            0   -2879287.4    51533.484 
    2200    798.22457   -2968433.4            0   -2879287.2    51522.964 
    2250    797.74025   -2968378.5            0   -2879286.4    51558.256 
    2300    797.32494   -2968331.5            0   -2879285.7    51569.397 
    2350    798.16003   -2968425.3            0   -2879286.3    51534.045 
    2400    798.09403   -2968417.6            0   -2879285.9    51531.746 
    2450    798.98973   -2968518.8            0   -2879287.1    51496.786 
    2500     797.3507     -2968334            0   -2879285.3    51571.545 
    2550    798.48726   -2968462.4            0   -2879286.8    51516.609 
    2600     798.2692   -2968437.6            0   -2879286.3    51523.407 
    2650     797.6292   -2968365.8            0     -2879286    51547.647 
    2700    798.17942     -2968427            0   -2879285.8    51529.072 
    2750    797.79671   -2968383.3            0   -2879284.8    51543.722 
    2800    797.67271   -2968368.7            0   -2879284.1    51555.734 
    2850    798.16381   -2968424.4            0     -2879285    51535.006 
    2900    797.97221   -2968402.7            0   -2879284.6    51551.425 
    2950    796.63731   -2968252.2            0   -2879283.3    51585.019 
    3000    797.82041   -2968385.4            0   -2879284.4    51536.796 
    3050    797.54945   -2968354.6            0   -2879283.8    51561.878 
    3100    796.77958   -2968267.4            0   -2879282.5    51594.868 
    3150     797.7667   -2968378.9            0   -2879283.8    51549.472 
    3200      797.228   -2968317.9            0     -2879283    51566.174 
    3250    797.74307   -2968375.5            0     -2879283    51539.564 
    3300    796.58458   -2968245.2            0   -2879282.1    51603.132 
    3350    797.98554   -2968402.7            0   -2879283.1    51533.261 
    3400    797.77396   -2968378.8            0   -2879282.9    51554.439 
    3450    798.23135   -2968430.1            0   -2879283.1    51527.424 
    3500    797.63316     -2968363            0   -2879282.8    51549.043 
    3550    797.70256   -2968370.2            0   -2879282.3    51552.466 
    3600    798.10432   -2968415.3            0   -2879282.5     51537.51 
    3650    798.06903   -2968411.8            0   -2879282.9    51536.515 
    3700    797.03486   -2968294.9            0   -2879281.5    51574.931 
    3750    799.04653   -2968521.4            0   -2879283.4    51497.602 
    3800    797.90008   -2968392.7            0   -2879282.7    51538.052 
    3850    798.43193   -2968451.9            0   -2879282.6    51521.931 
    3900    797.17961   -2968311.2            0   -2879281.6    51565.544 
    3950    798.02535   -2968406.1            0   -2879282.1    51527.961 
    4000     798.4443   -2968452.7            0   -2879281.9     51527.89 
    4050    797.72094   -2968371.2            0   -2879281.2    51555.941 
    4100    798.19945   -2968424.6            0   -2879281.1    51524.916 
    4150    799.14579   -2968530.5            0   -2879281.4    51500.708 
    4200    797.74279   -2968373.2            0   -2879280.8    51547.832 
    4250    797.46823   -2968341.5            0   -2879279.7    51560.731 
    4300    797.92579   -2968392.7            0   -2879279.9    51537.653 
    4350    798.02647     -2968404            0   -2879279.9     51538.77 
    4400    798.54451   -2968462.5            0   -2879280.6      51516.1 
    4450    797.36236   -2968329.2            0   -2879279.2    51560.531 
    4500    797.91895   -2968392.1            0     -2879280    51539.349 
    4550    797.52122   -2968347.2            0   -2879279.5    51557.235 
    4600    797.85066   -2968384.3            0   -2879279.8    51540.418 
    4650    797.32822   -2968324.9            0   -2879278.8    51565.702 
    4700    799.21793   -2968537.7            0   -2879280.5    51471.689 
    4750     797.2827   -2968319.8            0   -2879278.7    51560.691 
    4800     797.3999     -2968333            0   -2879278.9    51552.931 
    4850    798.05687   -2968406.9            0   -2879279.4    51530.122 
    4900    797.73766   -2968370.6            0   -2879278.7    51547.152 
    4950    798.69049   -2968478.2            0     -2879280    51506.586 
    5000    796.79323     -2968264            0   -2879277.6    51588.764 
    5050    798.84052   -2968494.2            0   -2879279.2    51511.822 
    5100     797.3646   -2968328.8            0   -2879278.6    51567.534 
    5150    798.30937     -2968435            0   -2879279.3    51532.561 
    5200    798.06225     -2968407            0   -2879278.9    51543.069 
    5250    797.07126   -2968295.3            0   -2879277.9    51575.635 
    5300    797.97252   -2968396.9            0   -2879278.8    51545.667 
    5350    798.13666   -2968414.4            0     -2879278    51536.476 
    5400    797.16744   -2968306.6            0   -2879278.4    51570.517 
    5450     797.7151   -2968367.5            0   -2879278.2    51557.291 
    5500    799.04426   -2968516.3            0   -2879278.5    51504.265 
    5550    797.26144   -2968315.6            0   -2879276.9     51568.19 
    5600     797.6435   -2968357.8            0   -2879276.5    51562.663 
    5650    797.66617   -2968360.2            0   -2879276.3    51555.958 
    5700    797.41246     -2968332            0   -2879276.5    51570.619 
    5750    798.57128   -2968462.2            0   -2879277.3    51518.049 
    5800    797.63325   -2968355.9            0   -2879275.8    51561.456 
    5850    797.92827   -2968389.3            0   -2879276.2     51552.95 
    5900    797.64633   -2968357.3            0   -2879275.7    51556.763 
    5950    797.70115   -2968363.3            0   -2879275.5      51548.1 
    6000    798.37488   -2968439.4            0   -2879276.4     51533.61 
    6050     798.5365   -2968456.5            0   -2879275.4    51525.824 
    6100    797.55291     -2968346            0   -2879274.7    51565.784 
    6150    798.10785   -2968408.3            0   -2879275.1    51539.859 
    6200    799.08166   -2968516.8            0   -2879274.9    51490.125 
    6250     797.2524   -2968310.7            0   -2879273.1    51565.636 
    6300    798.09426   -2968405.5            0   -2879273.9    51544.619 
    6350    797.56007   -2968345.2            0   -2879273.2    51560.582 
    6400    797.38811   -2968326.4            0   -2879273.6    51564.435 
    6450    797.04807   -2968288.3            0   -2879273.5    51583.758 
    6500     797.4681   -2968334.8            0     -2879273    51574.746 
    6550    797.78461   -2968370.6            0   -2879273.5     51559.89 
    6600    799.63427   -2968578.8            0   -2879275.1    51478.693 
    6650    797.68321   -2968359.6            0   -2879273.8    51562.558 
    6700    798.11394   -2968407.2            0   -2879273.3    51540.979 
    6750     798.4926   -2968450.1            0   -2879273.9    51524.583 
    6800    798.14123   -2968410.6            0   -2879273.7    51536.681 
    6850    797.27782   -2968313.5            0     -2879273    51566.387 
    6900    797.83075   -2968374.7            0   -2879272.5    51556.477 
    6950    799.00867   -2968508.3            0   -2879274.5    51499.512 
    7000     797.2013   -2968304.4            0   -2879272.4    51583.467 
    7050    798.16593   -2968412.2            0   -2879272.6     51534.62 
    7100    798.29679     -2968427            0   -2879272.7    51530.889 
    7150    797.04624   -2968286.4            0   -2879271.7    51588.222 
    7200    798.31539   -2968429.4            0   -2879273.1    51532.622 
    7250    798.53164   -2968452.7            0   -2879272.2      51518.2 
    7300    797.49667   -2968336.6            0   -2879271.7    51564.643 
    7350     797.7946   -2968369.7            0   -2879271.5     51551.35 
    7400    798.17971   -2968413.4            0   -2879272.1    51536.756 
    7450    798.40271   -2968436.9            0   -2879270.8    51529.513 
    7500    797.56226   -2968342.6            0   -2879270.4    51561.943 
    7550     797.6484   -2968352.7            0   -2879270.8    51566.514 
    7600    797.95892   -2968386.7            0   -2879270.1    51543.667 
    7650    798.54743   -2968452.8            0   -2879270.6    51521.736 
    7700     797.6461   -2968350.8            0   -2879269.1    51562.466 
    7750    798.15765   -2968408.7            0   -2879269.9    51538.684 
    7800     797.2437   -2968305.8            0   -2879269.1     51578.94 
    7850    798.00471   -2968390.6            0     -2879269    51547.516 
    7900    796.98965   -2968276.3            0   -2879267.9    51580.249 
    7950    797.88844   -2968377.3            0   -2879268.6    51549.852 
    8000    797.36032   -2968317.5            0   -2879267.8    51574.862 
    8050    798.66136   -2968463.3            0   -2879268.2    51521.266 
    8100     797.7503   -2968361.1            0   -2879267.9    51551.784 
    8150    797.89226   -2968377.1            0     -2879268     51558.73 
    8200    798.22882   -2968415.7            0     -2879269    51539.154 
    8250    798.11204   -2968401.2            0   -2879267.6    51543.009 
    8300    798.31456   -2968423.8            0   -2879267.5    51542.127 
    8350    797.52239   -2968334.4            0   -2879266.6    51572.742 
    8400    798.02724   -2968391.3            0   -2879267.1    51551.572 
    8450    797.19517   -2968297.8            0   -2879266.5    51574.901 
    8500    797.95237   -2968382.4            0   -2879266.6    51547.442 
    8550     796.8408   -2968256.7            0     -2879265    51595.847 
    8600    796.80247   -2968252.6            0   -2879265.2    51598.332 
    8650    798.89502   -2968487.6            0   -2879266.5    51516.256 
    8700    798.29372   -2968419.8            0   -2879265.9    51537.047 
    8750     798.5532   -2968448.6            0   -2879265.7    51525.665 
    8800    797.53233   -2968333.8            0   -2879264.9    51565.578 
    8850    796.83247   -2968254.2            0   -2879263.5    51600.542 
    8900    798.28904   -2968418.2            0   -2879264.8    51535.787 
    8950    798.13848   -2968401.7            0   -2879265.1    51552.715 
    9000    798.23296     -2968412            0   -2879264.8    51547.891 
    9050    798.07009   -2968393.8            0   -2879264.8    51554.579 
    9100    797.42062   -2968319.6            0   -2879263.2    51572.714 
    9150     798.3466   -2968424.1            0   -2879264.2    51540.553 
    9200    798.57384   -2968449.2            0   -2879263.9    51538.828 
    9250    796.96574   -2968268.6            0     -2879263    51584.255 
    9300    798.31231   -2968419.2            0   -2879263.2    51531.294 
    9350    798.07426   -2968391.7            0   -2879262.3     51555.26 
    9400    798.04497   -2968388.8            0   -2879262.6     51551.01 
    9450    798.42936   -2968431.9            0   -2879262.8     51526.34 
    9500    798.40804     -2968430            0   -2879263.3    51526.841 
    9550     797.9676   -2968380.2            0   -2879262.6    51548.729 
    9600     797.9848   -2968381.8            0   -2879262.3    51554.787 
    9650    797.93907   -2968376.6            0   -2879262.3    51551.722 
    9700    797.62481   -2968340.8            0   -2879261.5    51568.388 
    9750    798.07304   -2968390.2            0   -2879260.9    51547.157 
    9800    797.59552   -2968336.9            0   -2879260.9    51574.313 
    9850    797.63758   -2968341.2            0   -2879260.5    51562.968 
    9900    797.77553     -2968358            0     -2879262    51553.824 
    9950    797.22903   -2968295.9            0   -2879260.8    51582.381 
   10000     797.8094   -2968360.9            0     -2879261    51566.803 
Loop time of 3453.25 on 1 procs for 10000 steps with 864000 atoms

Performance: 1.251 ns/day, 19.185 hours/ns, 2.896 timesteps/s
100.0% CPU use with 1 MPI tasks x 1 OpenMP threads

MPI task timing breakdown:
Section |  min time  |  avg time  |  max time  |%varavg| %total
---------------------------------------------------------------
Pair    | 2885.5     | 2885.5     | 2885.5     |   0.0 | 83.56
Neigh   | 309.76     | 309.76     | 309.76     |   0.0 |  8.97
Comm    | 119.67     | 119.67     | 119.67     |   0.0 |  3.47
Output  | 0.4638     | 0.4638     | 0.4638     |   0.0 |  0.01
Modify  | 100.68     | 100.68     | 100.68     |   0.0 |  2.92
Other   |            | 37.16      |            |       |  1.08

Nlocal:         864000 ave      864000 max      864000 min
Histogram: 1 0 0 0 0 0 0 0 0 0
Nghost:         160182 ave      160182 max      160182 min
Histogram: 1 0 0 0 0 0 0 0 0 0
Neighs:    3.26192e+07 ave 3.26192e+07 max 3.26192e+07 min
Histogram: 1 0 0 0 0 0 0 0 0 0

Total # of neighbors = 32619189
Ave neighs/atom = 37.753691
Neighbor list builds = 1639
Dangerous builds = 15
Total wall time: 0:57:34
Intel(R) VTune(TM) Profiler 2022.2.0 collection completed successfully. Use the "aps --report /home/ubuntu/lammps/bench/aps_result_20220703" command to generate textual and HTML reports for the profiling session.
