LAMMPS (7 Jan 2022)
  using 1 OpenMP thread(s) per MPI task
Lattice spacing in x,y,z = 3.615 3.615 3.615
Created orthogonal box = (0 0 0) to (72.3 72.3 72.3)
  2 by 2 by 2 MPI processor grid
Created 32000 atoms
  using lattice units in orthogonal box = (0 0 0) to (72.3 72.3 72.3)
  create_atoms CPU = 0.002 seconds
Reading eam potential file Cu_u3.eam with DATE: 2007-06-11
----------------------------------------------------------
Using INTEL Package without Coprocessor.
Compiler: Intel Classic C++ 20.21.5 / Intel(R) C++ g++ 9.3 mode
SIMD compiler directives: Enabled
Precision: mixed
----------------------------------------------------------
Neighbor list info ...
  update every 1 steps, delay 5 steps, check yes
  max neighbors/atom: 2000, page size: 100000
  master list distance cutoff = 5.95
  ghost atom cutoff = 5.95
  binsize = 2.975, bins = 25 25 25
  1 neighbor lists, perpetual/occasional/extra = 1 0 0
  (1) pair eam/intel, perpetual
      attributes: half, newton on, intel
      pair build: half/bin/newton/intel
      stencil: half/bin/3d
      bin: intel
Setting up Verlet run ...
  Unit style    : metal
  Current step  : 0
  Time step     : 0.005
Per MPI rank memory allocation (min/avg/max) = 37.74 | 37.74 | 37.74 Mbytes
Step Temp E_pair E_mol TotEng Press 
       0         1600   -113279.97            0   -106662.06    18703.495 
      50    781.69068   -109873.35            0   -106640.12    52273.086 
     100    801.83209    -109957.3            0   -106640.76    51322.813 
     150    794.67654   -109927.53            0    -106640.6    51669.291 
     200    795.75182   -109932.04            0   -106640.66    51628.989 
     250    797.58383   -109939.57            0    -106640.6    51564.189 
     300     793.2342    -109921.5            0   -106640.53    51741.323 
     350    799.19328    -109946.3            0   -106640.68    51461.993 
     400    797.16436   -109937.82            0   -106640.59    51585.722 
     450    794.86293   -109928.11            0    -106640.4    51651.381 
     500    796.77902   -109936.18            0   -106640.54    51565.522 
     550    796.68551   -109935.86            0   -106640.62    51581.032 
     600    799.54736   -109947.77            0   -106640.68    51434.253 
     650    800.85046   -109953.14            0   -106640.66    51407.477 
     700     791.7394   -109915.12            0   -106640.33    51729.736 
     750    801.43149   -109955.61            0   -106640.73    51340.574 
     800    797.90847   -109940.71            0   -106640.41    51528.019 
     850    803.70292   -109964.92            0   -106640.64    51322.126 
     900    805.39443   -109971.98            0   -106640.71    51275.768 
     950    799.25699   -109946.33            0   -106640.45    51488.251 
    1000    796.31053    -109933.9            0    -106640.2    51607.794 
    1050    793.64417   -109922.93            0   -106640.26    51684.394 
    1100    800.65263   -109951.92            0   -106640.26    51463.365 
    1150    795.84974   -109932.11            0   -106640.32    51538.834 
    1200    798.38033   -109942.74            0   -106640.48    51467.981 
    1250    800.59801    -109951.8            0   -106640.37    51436.144 
    1300    796.78909   -109935.94            0   -106640.27    51588.164 
    1350    798.07644   -109941.49            0   -106640.49    51527.491 
    1400    801.37371   -109955.15            0   -106640.51    51418.566 
    1450    797.42422   -109938.55            0   -106640.25    51536.187 
    1500    795.31216   -109929.78            0   -106640.22    51643.989 
    1550    799.24493   -109946.18            0   -106640.34    51470.988 
    1600    793.68394   -109923.01            0   -106640.18    51724.394 
    1650    798.83522   -109944.51            0   -106640.37    51456.586 
    1700    798.73663   -109943.99            0   -106640.26    51495.254 
    1750    798.27008      -109942            0    -106640.2    51526.037 
    1800    797.26892   -109937.93            0   -106640.27    51536.207 
    1850    796.56023    -109934.9            0   -106640.17    51543.529 
    1900     801.1823   -109954.23            0   -106640.39    51393.587 
    1950    804.28523   -109967.05            0   -106640.37    51309.328 
    2000    795.52009   -109930.66            0   -106640.24    51609.881 
    2050     798.4268   -109942.69            0   -106640.24    51542.478 
    2100    795.97272   -109932.47            0   -106640.18    51619.484 
    2150    795.85043   -109931.88            0   -106640.09    51615.925 
    2200    797.60442   -109939.49            0   -106640.44    51553.661 
    2250    796.47201   -109934.52            0   -106640.16    51656.099 
    2300    791.42275   -109913.48            0      -106640    51820.977 
    2350    799.18131   -109945.72            0   -106640.15    51488.913 
    2400    801.52406   -109955.55            0   -106640.29     51434.66 
    2450    798.83606   -109944.35            0   -106640.21    51513.351 
    2500    799.91405   -109948.75            0   -106640.15    51494.221 
    2550    796.55463   -109934.78            0   -106640.07    51619.266 
    2600    793.08464    -109920.4            0   -106640.04    51723.447 
    2650    801.14491   -109953.91            0   -106640.21    51393.715 
    2700    800.29096   -109950.48            0   -106640.32    51377.463 
    2750    797.50006   -109938.88            0   -106640.26    51550.494 
    2800    797.52984   -109938.96            0   -106640.22    51604.196 
    2850    798.38516   -109942.42            0   -106640.14    51563.047 
    2900    797.80401   -109940.12            0   -106640.25    51526.269 
    2950    800.61997   -109951.68            0   -106640.16    51430.275 
    3000    797.60713   -109939.23            0   -106640.17    51488.298 
    3050    799.64818   -109947.72            0   -106640.22    51461.873 
    3100    796.15853   -109933.25            0   -106640.19    51601.558 
    3150    793.13853   -109920.67            0   -106640.09    51713.191 
    3200    797.41615    -109938.4            0   -106640.13    51541.518 
    3250    801.32328   -109954.69            0   -106640.26    51457.092 
    3300    797.89055   -109940.39            0   -106640.15     51528.65 
    3350    803.87409    -109965.2            0   -106640.22     51326.13 
    3400     794.4784   -109926.09            0   -106639.97    51696.894 
    3450    797.01346   -109936.69            0   -106640.09    51599.194 
    3500    793.55007   -109922.26            0   -106639.99    51720.885 
    3550    797.22207   -109937.67            0    -106640.2    51564.521 
    3600    794.65069   -109926.84            0   -106640.01    51685.189 
    3650    793.04571   -109920.15            0   -106639.95    51780.132 
    3700    796.72242   -109935.54            0   -106640.14    51599.562 
    3750    797.14532   -109937.29            0   -106640.14    51514.306 
    3800    795.03852   -109928.57            0   -106640.13    51673.731 
    3850    800.58056   -109951.57            0   -106640.21    51411.422 
    3900    803.43328   -109963.39            0   -106640.23    51300.431 
    3950    798.02654   -109940.88            0   -106640.08    51554.665 
    4000    796.19843   -109933.16            0   -106639.93    51620.648 
    4050    798.78455   -109943.96            0   -106640.03    51506.403 
    4100    797.74547   -109939.68            0   -106640.05     51561.57 
    4150    796.90977   -109936.22            0   -106640.04    51524.438 
    4200    795.54177   -109930.44            0   -106639.92    51689.671 
    4250    796.55485   -109934.85            0   -106640.14    51613.724 
    4300     793.9254   -109923.81            0   -106639.98    51676.849 
    4350    796.00163   -109932.36            0   -106639.94    51630.544 
    4400    795.97681   -109932.36            0   -106640.04    51616.107 
    4450    798.97368   -109944.69            0   -106639.98    51481.321 
    4500    797.75985   -109939.68            0   -106639.99    51502.572 
    4550    799.61533   -109947.39            0   -106640.02      51428.8 
    4600    796.50533   -109934.52            0   -106640.02    51612.947 
    4650    796.37292   -109933.92            0   -106639.97    51627.024 
    4700     796.5658   -109934.84            0   -106640.09    51611.387 
    4750    801.61458   -109955.72            0   -106640.08    51375.923 
    4800    799.10831   -109945.21            0   -106639.95    51502.412 
    4850    799.21378   -109945.53            0   -106639.83    51568.658 
    4900    796.95256    -109936.2            0   -106639.85    51616.737 
    4950    803.08102   -109961.72            0   -106640.02    51330.566 
    5000    791.35097   -109912.75            0   -106639.57     51838.43 
    5050    795.93104    -109931.9            0   -106639.78    51594.002 
    5100    799.97246    -109948.7            0   -106639.85    51426.997 
    5150    795.86688   -109931.54            0   -106639.68    51605.531 
    5200    797.22275   -109937.31            0   -106639.85    51557.015 
    5250     793.9709   -109923.73            0   -106639.71    51695.763 
    5300    800.59796   -109951.38            0   -106639.95    51419.679 
    5350    797.40969   -109937.98            0   -106639.74    51579.433 
    5400    802.14663   -109957.85            0   -106640.02    51314.919 
    5450    797.01153   -109936.47            0   -106639.87    51572.704 
    5500    796.81397   -109935.54            0   -106639.76    51586.201 
    5550    797.82631   -109939.71            0   -106639.75    51581.317 
    5600    792.96482   -109919.54            0   -106639.68    51724.174 
    5650    800.29388   -109950.09            0   -106639.91    51391.261 
    5700    803.44848   -109963.21            0   -106639.99    51235.786 
    5750    799.79102   -109947.92            0   -106639.83    51462.625 
    5800    797.10358   -109936.74            0   -106639.76    51583.435 
    5850    796.10509   -109932.61            0   -106639.76    51621.142 
    5900    796.81301   -109935.54            0   -106639.77    51562.449 
    5950     800.4971   -109950.91            0    -106639.9    51422.249 
    6000     799.1708   -109945.32            0    -106639.8    51494.887 
    6050    794.35258   -109925.27            0   -106639.68    51677.619 
    6100    799.34511   -109946.01            0   -106639.76    51475.926 
    6150    799.82219   -109948.03            0    -106639.8    51445.639 
    6200    801.40883   -109954.67            0   -106639.89    51380.398 
    6250    796.30255   -109933.36            0    -106639.7    51620.416 
    6300    797.98594   -109940.39            0   -106639.77    51531.952 
    6350    789.11394   -109903.47            0   -106639.54    51896.862 
    6400    798.40038   -109942.26            0   -106639.92    51561.528 
    6450    794.36269   -109925.41            0   -106639.77    51683.187 
    6500    797.95261   -109940.25            0   -106639.76    51559.648 
    6550    798.22248   -109941.65            0   -106640.04    51503.512 
    6600    798.59828   -109943.03            0   -106639.87    51528.122 
    6650    798.30204   -109941.74            0   -106639.81     51470.52 
    6700    796.93916   -109936.13            0   -106639.84    51544.121 
    6750    798.51536   -109942.71            0   -106639.89    51530.951 
    6800    798.61578   -109943.11            0   -106639.88    51554.956 
    6850    795.82235   -109931.52            0   -106639.85    51665.633 
    6900    796.45617   -109934.17            0   -106639.87    51589.685 
    6950    800.55604   -109951.15            0    -106639.9    51401.022 
    7000    793.67553   -109922.64            0   -106639.85     51651.84 
    7050    800.35015   -109950.38            0   -106639.98    51437.145 
    7100    795.10388   -109928.46            0   -106639.76    51671.213 
    7150    794.36536   -109925.42            0   -106639.77    51677.612 
    7200    795.29122   -109929.26            0   -106639.78    51674.491 
    7250    799.14871   -109945.29            0   -106639.86    51497.948 
    7300    799.77478   -109947.91            0   -106639.89     51498.49 
    7350    797.57145   -109938.84            0   -106639.93     51521.09 
    7400    796.19781   -109933.08            0   -106639.86    51642.536 
    7450    798.40506   -109942.25            0   -106639.89    51553.146 
    7500    800.52007    -109951.2            0   -106640.09    51406.504 
    7550     800.2744   -109949.94            0   -106639.85    51459.012 
    7600     797.8709   -109940.08            0   -106639.93    51509.609 
    7650    797.05899   -109936.54            0   -106639.74    51581.139 
    7700    797.11727    -109936.9            0   -106639.87    51553.776 
    7750    798.05491   -109940.74            0   -106639.83    51525.148 
    7800    797.89432   -109940.12            0   -106639.87    51591.917 
    7850    798.49357   -109942.64            0   -106639.92    51510.172 
    7900    794.84568   -109927.47            0   -106639.83    51703.834 
    7950    800.57219   -109951.25            0   -106639.93     51437.04 
    8000    795.85232   -109931.68            0   -106639.88    51583.034 
    8050     792.5682   -109918.03            0   -106639.81    51743.664 
    8100    798.14096   -109941.21            0   -106639.94    51516.007 
    8150    798.39477   -109942.17            0   -106639.86     51535.62 
    8200    796.65438    -109935.1            0   -106639.98    51570.156 
    8250    797.05884   -109936.63            0   -106639.84      51601.8 
    8300    803.12306   -109961.89            0   -106640.02    51317.996 
    8350    800.53981   -109951.22            0   -106640.03    51347.749 
    8400    797.34523   -109937.88            0    -106639.9    51493.197 
    8450    795.22799   -109928.88            0   -106639.66    51680.173 
    8500    796.89609   -109935.89            0   -106639.77    51582.995 
    8550    797.36033    -109937.8            0   -106639.76    51566.161 
    8600      795.672   -109930.72            0   -106639.66     51594.68 
    8650     800.2153   -109949.74            0   -106639.89    51453.287 
    8700    792.59415   -109918.13            0   -106639.81    51736.502 
    8750    802.23915   -109958.18            0   -106639.96    51377.722 
    8800    800.52459   -109951.09            0   -106639.97    51446.392 
    8850    798.35152   -109941.82            0   -106639.68    51577.115 
    8900    794.69032   -109926.61            0   -106639.62    51691.123 
    8950    796.89437   -109935.74            0   -106639.63    51598.468 
    9000    797.26716   -109937.32            0   -106639.67    51584.613 
    9050     799.1766   -109945.32            0   -106639.77     51505.96 
    9100    794.12692   -109924.37            0   -106639.71    51736.381 
    9150    793.21898   -109920.64            0   -106639.73    51774.572 
    9200    798.95782   -109944.46            0   -106639.81    51515.426 
    9250    794.13578   -109924.25            0   -106639.55    51719.935 
    9300    797.40613   -109937.93            0    -106639.7    51597.676 
    9350    797.37869   -109937.82            0    -106639.7    51516.255 
    9400    797.49997   -109938.37            0   -106639.75     51561.67 
    9450    801.40497   -109954.75            0   -106639.98    51400.312 
    9500    794.05277   -109923.92            0   -106639.57    51694.039 
    9550    797.20694   -109937.01            0    -106639.6    51588.344 
    9600    794.58595    -109926.1            0   -106639.54    51723.428 
    9650     797.8185   -109939.62            0   -106639.68    51534.187 
    9700     796.6313   -109934.59            0   -106639.56    51639.549 
    9750    797.34356   -109937.53            0   -106639.56    51621.999 
    9800    793.85123   -109922.96            0   -106639.44    51684.508 
    9850    801.36104    -109954.3            0   -106639.72    51400.472 
    9900    798.09177   -109940.55            0   -106639.49    51546.245 
    9950    797.23425   -109937.09            0   -106639.57    51535.792 
   10000    794.89434   -109927.29            0   -106639.45    51751.826 
Loop time of 16.9041 on 8 procs for 10000 steps with 32000 atoms

Performance: 255.560 ns/day, 0.094 hours/ns, 591.573 timesteps/s
99.3% CPU use with 8 MPI tasks x 1 OpenMP threads

MPI task timing breakdown:
Section |  min time  |  avg time  |  max time  |%varavg| %total
---------------------------------------------------------------
Pair    | 13.685     | 13.865     | 13.936     |   2.1 | 82.02
Neigh   | 1.3624     | 1.4093     | 1.4336     |   1.7 |  8.34
Comm    | 1.145      | 1.2382     | 1.4745     |   8.8 |  7.32
Output  | 0.0041207  | 0.0043587  | 0.0049814  |   0.4 |  0.03
Modify  | 0.23898    | 0.2472     | 0.25923    |   1.5 |  1.46
Other   |            | 0.1396     |            |       |  0.83

Nlocal:           4000 ave        4039 max        3972 min
Histogram: 2 1 0 1 1 1 0 0 1 1
Nghost:        5840.75 ave        5868 max        5802 min
Histogram: 1 1 0 0 1 1 1 0 1 2
Neighs:         150968 ave      152704 max      149545 min
Histogram: 2 0 1 1 0 2 0 0 1 1

Total # of neighbors = 1207742
Ave neighs/atom = 37.741937
Neighbor list builds = 1422
Dangerous builds = 1
Total wall time: 0:00:16
Intel(R) VTune(TM) Profiler 2022.2.0 collection completed successfully. Use the "aps --report /home/ubuntu/lammps/bench/aps_result_20220703" command to generate textual and HTML reports for the profiling session.
