LAMMPS (7 Jan 2022)
  using 1 OpenMP thread(s) per MPI task
Lattice spacing in x,y,z = 3.615 3.615 3.615
Created orthogonal box = (0 0 0) to (144.6 144.6 144.6)
  2 by 4 by 4 MPI processor grid
Created 256000 atoms
  using lattice units in orthogonal box = (0 0 0) to (144.6 144.6 144.6)
  create_atoms CPU = 0.003 seconds
Reading eam potential file Cu_u3.eam with DATE: 2007-06-11
----------------------------------------------------------
Using INTEL Package without Coprocessor.
Compiler: Intel Classic C++ 20.21.5 / Intel(R) C++ g++ 9.3 mode
SIMD compiler directives: Enabled
Precision: mixed
----------------------------------------------------------
Neighbor list info ...
  update every 1 steps, delay 5 steps, check yes
  max neighbors/atom: 2000, page size: 100000
  master list distance cutoff = 5.95
  ghost atom cutoff = 5.95
  binsize = 2.975, bins = 49 49 49
  1 neighbor lists, perpetual/occasional/extra = 1 0 0
  (1) pair eam/intel, perpetual
      attributes: half, newton on, intel
      pair build: half/bin/newton/intel
      stencil: half/bin/3d
      bin: intel
Setting up Verlet run ...
  Unit style    : metal
  Current step  : 0
  Time step     : 0.005
Per MPI rank memory allocation (min/avg/max) = 67.79 | 74.4 | 81.26 Mbytes
Step Temp E_pair E_mol TotEng Press 
       0         1600   -906239.72            0   -853294.98        18704 
      50    780.37021   -878942.74            0   -853119.92     52325.53 
     100    798.91521   -879560.77            0    -853124.3    51436.872 
     150    795.68013   -879452.85            0   -853123.42    51622.573 
     200    797.93072   -879527.83            0   -853123.93    51516.046 
     250    797.51866   -879514.03            0   -853123.77    51535.149 
     300      798.096   -879533.17            0    -853123.8     51506.84 
     350     796.9077   -879493.25            0   -853123.21    51573.891 
     400    797.85498    -879524.9            0    -853123.5      51551.6 
     450    798.42204   -879543.82            0   -853123.66     51521.83 
     500    799.16361   -879568.48            0   -853123.79    51492.887 
     550    796.86616   -879491.86            0   -853123.19    51561.011 
     600    797.12813   -879500.47            0   -853123.13    51559.651 
     650    797.44639   -879511.36            0   -853123.49    51554.692 
     700    796.82811   -879490.52            0   -853123.11    51588.566 
     750    798.83292   -879557.14            0   -853123.39    51491.526 
     800    798.59168   -879549.16            0   -853123.39    51509.597 
     850    798.37729   -879541.83            0   -853123.16    51525.388 
     900    797.94009   -879526.97            0   -853122.76    51541.508 
     950    799.17245   -879568.33            0   -853123.34    51497.123 
    1000    799.63445   -879583.53            0   -853123.25    51479.299 
    1050    798.68435   -879552.11            0   -853123.27     51478.47 
    1100    796.97853   -879494.98            0   -853122.59    51568.396 
    1150    796.71561   -879486.24            0   -853122.55    51576.633 
    1200    796.32242   -879472.91            0   -853122.23     51601.96 
    1250    797.12478   -879499.61            0   -853122.38    51551.748 
    1300    797.51669   -879512.51            0   -853122.31    51554.631 
    1350       798.98   -879561.17            0   -853122.55    51496.597 
    1400    797.27669   -879504.09            0   -853121.83    51578.486 
    1450    797.52972   -879512.72            0   -853122.08    51547.145 
    1500    799.16339    -879567.2            0   -853122.51    51501.118 
    1550    797.79786   -879521.71            0    -853122.2     51531.24 
    1600    797.36842   -879507.04            0   -853121.75    51560.655 
    1650    796.91828   -879491.84            0   -853121.44    51595.493 
    1700    798.00966   -879528.68            0   -853122.17    51522.414 
    1750    797.51775   -879511.72            0   -853121.48    51545.597 
    1800    798.41356   -879541.51            0   -853121.63    51511.485 
    1850    798.68646   -879550.54            0   -853121.64     51516.87 
    1900    797.64094    -879515.7            0   -853121.38    51562.302 
    1950     796.8118    -879488.2            0   -853121.32    51578.952 
    2000    799.07671   -879563.83            0      -853122    51483.561 
    2050    800.85896   -879622.92            0   -853122.12    51433.824 
    2100    797.80101   -879520.45            0   -853120.84    51553.791 
    2150    796.65429   -879482.71            0   -853121.05    51605.498 
    2200    797.62259    -879514.9            0   -853121.19    51566.019 
    2250    797.00634   -879494.55            0   -853121.24    51559.331 
    2300    797.75492   -879519.03            0   -853120.94    51512.601 
    2350    796.74902   -879485.46            0   -853120.67    51600.421 
    2400      799.127   -879564.68            0    -853121.2     51507.56 
    2450     798.0502   -879528.79            0   -853120.93    51529.017 
    2500    797.82241   -879521.29            0   -853120.97    51544.582 
    2550    796.66004   -879482.29            0   -853120.44     51582.67 
    2600    798.11664   -879530.92            0   -853120.87    51539.054 
    2650    798.68445   -879549.69            0   -853120.85    51515.921 
    2700    797.96515   -879525.55            0   -853120.51    51532.747 
    2750    796.10397   -879463.24            0   -853119.79    51603.846 
    2800    797.20186   -879500.13            0   -853120.34    51577.299 
    2850    798.90017   -879556.74            0   -853120.76    51503.327 
    2900    796.32035   -879471.06            0   -853120.45    51593.313 
    2950    796.90041   -879490.05            0   -853120.24    51566.996 
    3000    796.60912   -879479.81            0   -853119.64    51600.091 
    3050    798.74335   -879551.03            0   -853120.24      51499.3 
    3100    797.93036   -879524.22            0   -853120.33      51551.2 
    3150    798.64957   -879547.91            0   -853120.22    51508.285 
    3200    798.06899   -879528.59            0   -853120.11    51534.658 
    3250    799.44656    -879574.3            0   -853120.24    51478.445 
    3300     798.0247   -879526.61            0    -853119.6    51527.191 
    3350    796.95216   -879490.91            0   -853119.39    51591.607 
    3400    799.25341   -879567.32            0   -853119.66    51474.269 
    3450     797.1926   -879498.94            0   -853119.46    51578.584 
    3500    797.49444   -879508.92            0   -853119.45    51551.622 
    3550    799.40239      -879572            0    -853119.4    51493.865 
    3600     797.8342   -879520.14            0   -853119.43    51547.286 
    3650    797.69844   -879515.88            0   -853119.66    51548.063 
    3700    798.00854   -879526.02            0   -853119.54    51526.674 
    3750    797.44228   -879506.54            0    -853118.8    51564.344 
    3800    797.48089    -879507.9            0   -853118.88    51542.831 
    3850    796.50466   -879475.56            0   -853118.85    51606.382 
    3900    798.87612   -879554.36            0   -853119.17    51520.821 
    3950    797.55655   -879510.72            0    -853119.2    51550.512 
    4000    797.58262   -879511.46            0   -853119.08    51547.727 
    4050    796.85686   -879487.04            0   -853118.67    51583.087 
    4100    796.40103   -879471.97            0   -853118.68    51614.572 
    4150    796.86349   -879487.31            0   -853118.72    51588.787 
    4200    796.35668    -879470.6            0   -853118.79    51628.101 
    4250     797.4975   -879508.06            0    -853118.5    51561.757 
    4300    800.56424   -879610.67            0   -853119.62    51452.529 
    4350    798.61063   -879545.31            0   -853118.91    51531.436 
    4400    797.75449   -879516.81            0   -853118.74    51551.435 
    4450    797.55375   -879509.69            0   -853118.26    51570.919 
    4500    799.40319   -879571.55            0   -853118.92    51501.423 
    4550    797.81758   -879518.85            0    -853118.7    51550.482 
    4600    798.68259   -879547.71            0   -853118.93    51526.841 
    4650    797.85492   -879520.08            0   -853118.68    51562.481 
    4700    796.88285   -879487.75            0   -853118.53    51592.268 
    4750    797.67077   -879513.74            0   -853118.44     51562.37 
    4800    798.20824   -879531.62            0   -853118.54    51530.904 
    4850    797.77532   -879517.47            0   -853118.71    51554.342 
    4900    798.12728   -879529.14            0   -853118.73    51558.621 
    4950    798.27934   -879534.49            0   -853119.05    51543.063 
    5000    797.54104   -879509.23            0   -853118.23     51575.95 
    5050    797.23484   -879499.42            0   -853118.55    51565.912 
    5100    798.07135   -879526.91            0   -853118.36    51536.519 
    5150    797.77913   -879517.04            0   -853118.16    51562.428 
    5200    797.18542    -879497.4            0   -853118.17    51586.956 
    5250    798.97505   -879556.93            0   -853118.47    51503.107 
    5300    798.02226   -879525.53            0    -853118.6    51546.499 
    5350    797.12483   -879495.45            0   -853118.22    51576.882 
    5400    797.70411      -879515            0   -853118.59    51547.065 
    5450    798.64325   -879545.76            0   -853118.28    51522.051 
    5500    797.14733   -879495.97            0      -853118    51586.566 
    5550    798.95759    -879556.1            0   -853118.22    51526.104 
    5600    798.20628   -879530.88            0   -853117.87    51533.871 
    5650    797.24881   -879498.88            0   -853117.54    51559.876 
    5700    798.38295   -879536.49            0   -853117.63     51537.93 
    5750    797.97507   -879522.71            0   -853117.34    51536.649 
    5800    796.78506   -879483.24            0   -853117.25    51598.179 
    5850    797.83691   -879518.68            0   -853117.88    51556.421 
    5900    796.59629    -879477.2            0   -853117.45    51591.716 
    5950    796.89886   -879486.63            0   -853116.87    51583.866 
    6000    797.39862   -879503.58            0   -853117.29    51577.991 
    6050     799.7583   -879581.87            0   -853117.49    51471.481 
    6100    797.17133   -879495.97            0    -853117.2    51563.596 
    6150    797.94521   -879521.14            0   -853116.76    51571.423 
    6200    796.70089   -879480.14            0   -853116.94    51617.239 
    6250    798.88904   -879553.16            0   -853117.55    51508.981 
    6300     797.2128   -879497.23            0   -853117.09    51576.671 
    6350    796.84303   -879485.03            0   -853117.12    51582.835 
    6400      796.273   -879465.64            0    -853116.6    51618.729 
    6450    796.70491   -879480.47            0   -853117.13    51584.778 
    6500    796.63741   -879477.58            0   -853116.48    51599.199 
    6550    797.27879   -879498.71            0   -853116.38    51582.633 
    6600    797.91313   -879520.23            0   -853116.91    51553.011 
    6650    798.41664   -879536.85            0   -853116.87    51535.126 
    6700    796.96125   -879488.57            0   -853116.75    51580.933 
    6750    799.26731   -879565.25            0   -853117.12    51484.969 
    6800    798.79812   -879549.21            0    -853116.6    51527.905 
    6850    798.24905    -879531.5            0   -853117.06    51529.741 
    6900    797.68729    -879512.5            0   -853116.65      51557.1 
    6950    796.40688   -879469.64            0   -853116.16    51595.798 
    7000    797.25977   -879497.93            0   -853116.23    51573.186 
    7050     797.3422   -879500.82            0   -853116.39    51564.931 
    7100    797.53059   -879506.88            0   -853116.22    51569.988 
    7150    798.67434   -879545.26            0   -853116.75    51514.907 
    7200    797.59979   -879508.95            0      -853116    51559.224 
    7250    799.39011   -879568.72            0   -853116.52    51496.689 
    7300     797.4173   -879502.63            0   -853115.72    51576.561 
    7350    799.38207   -879568.26            0   -853116.34    51487.656 
    7400     796.8055   -879481.88            0   -853115.21    51601.267 
    7450     795.6993   -879445.41            0   -853115.35    51653.001 
    7500     796.9449   -879486.74            0   -853115.46    51589.476 
    7550    799.29888    -879565.2            0   -853116.03    51499.654 
    7600    797.24404   -879496.94            0   -853115.76    51557.869 
    7650    798.30072   -879531.78            0   -853115.64    51546.111 
    7700    797.87848   -879517.72            0   -853115.54    51543.269 
    7750    796.58814   -879474.64            0   -853115.16    51581.464 
    7800    798.22157   -879529.05            0   -853115.53    51531.628 
    7850    798.48297   -879538.11            0   -853115.93     51528.18 
    7900    798.86653   -879550.72            0   -853115.85    51507.467 
    7950     795.4726   -879437.68            0   -853115.12    51621.927 
    8000    796.76173   -879480.53            0   -853115.31    51585.199 
    8050    796.96419      -879487            0   -853115.08    51576.432 
    8100    797.49614   -879504.74            0   -853115.22    51553.702 
    8150    797.21522   -879495.65            0   -853115.42    51568.797 
    8200     799.2759   -879563.63            0   -853115.22    51496.758 
    8250    799.09247   -879557.61            0   -853115.27    51509.832 
    8300    796.16939   -879460.53            0   -853114.91    51626.478 
    8350    797.24853   -879496.62            0   -853115.29    51564.591 
    8400    797.37836   -879500.49            0   -853114.86    51576.081 
    8450    798.47767   -879537.11            0   -853115.11    51517.473 
    8500    799.19024   -879560.53            0   -853114.95     51504.16 
    8550    797.67496   -879510.62            0   -853115.19    51566.579 
    8600     798.6965   -879544.14            0    -853114.9    51525.124 
    8650    798.83222    -879548.9            0   -853115.16    51517.911 
    8700    796.41004   -879467.59            0      -853114     51623.28 
    8750    797.58448   -879506.89            0   -853114.45    51566.867 
    8800    796.91545   -879484.45            0   -853114.14    51595.108 
    8850    795.90774   -879451.04            0   -853114.08    51645.582 
    8900     798.3225   -879531.18            0   -853114.32    51546.672 
    8950    798.90455    -879550.9            0   -853114.77    51528.592 
    9000    798.38056    -879533.1            0   -853114.31    51539.575 
    9050    797.08276    -879490.1            0   -853114.26    51575.189 
    9100    798.44543   -879535.47            0   -853114.54    51524.565 
    9150    798.46574   -879536.22            0   -853114.62    51539.113 
    9200    797.74255   -879512.24            0   -853114.57    51573.163 
    9250    797.41652    -879500.8            0   -853113.92    51573.876 
    9300    800.44789   -879601.77            0   -853114.58     51450.97 
    9350    797.16662   -879492.61            0      -853114    51579.753 
    9400    797.95635   -879519.11            0   -853114.36    51558.035 
    9450    796.13197   -879458.22            0   -853113.84    51619.811 
    9500    797.89764   -879517.04            0   -853114.24    51557.303 
    9550     797.2403   -879495.36            0    -853114.3    51566.954 
    9600    798.80751   -879547.75            0   -853114.83    51505.579 
    9650    795.39259   -879433.72            0   -853113.81    51641.815 
    9700    798.42527   -879534.65            0   -853114.38    51515.446 
    9750    797.21417   -879493.96            0   -853113.77    51592.069 
    9800    799.18646    -879559.5            0   -853114.05    51495.733 
    9850    796.36084   -879466.12            0   -853114.17    51607.705 
    9900    798.02108   -879521.06            0   -853114.17    51540.864 
    9950    799.02254   -879554.24            0   -853114.21    51510.082 
   10000    796.99244   -879486.62            0   -853113.77     51588.44 
Loop time of 35.2314 on 32 procs for 10000 steps with 256000 atoms

Performance: 122.618 ns/day, 0.196 hours/ns, 283.837 timesteps/s
99.4% CPU use with 32 MPI tasks x 1 OpenMP threads

MPI task timing breakdown:
Section |  min time  |  avg time  |  max time  |%varavg| %total
---------------------------------------------------------------
Pair    | 28.097     | 28.333     | 28.593     |   2.1 | 80.42
Neigh   | 2.9847     | 3.0525     | 3.1554     |   1.9 |  8.66
Comm    | 2.2542     | 2.5604     | 2.8983     |   8.8 |  7.27
Output  | 0.011447   | 0.013322   | 0.016028   |   1.0 |  0.04
Modify  | 0.74634    | 0.81896    | 0.89308    |   4.2 |  2.32
Other   |            | 0.4529     |            |       |  1.29

Nlocal:           8000 ave        8060 max        7939 min
Histogram: 2 2 4 5 3 5 4 2 1 4
Nghost:        9130.38 ave        9191 max        9071 min
Histogram: 4 2 1 4 3 5 5 4 2 2
Neighs:         302017 ave      304961 max      299187 min
Histogram: 2 1 4 7 5 2 5 2 2 2

Total # of neighbors = 9664546
Ave neighs/atom = 37.752133
Neighbor list builds = 1532
Dangerous builds = 4
Total wall time: 0:00:35
Intel(R) VTune(TM) Profiler 2022.2.0 collection completed successfully. Use the "aps --report /home/ubuntu/lammps/bench/aps_result_20220703" command to generate textual and HTML reports for the profiling session.
