LAMMPS (7 Jan 2022)
  using 1 OpenMP thread(s) per MPI task
Lattice spacing in x,y,z = 3.615 3.615 3.615
Created orthogonal box = (0 0 0) to (216.9 216.9 216.9)
  2 by 2 by 2 MPI processor grid
Created 864000 atoms
  using lattice units in orthogonal box = (0 0 0) to (216.9 216.9 216.9)
  create_atoms CPU = 0.032 seconds
Reading eam potential file Cu_u3.eam with DATE: 2007-06-11
----------------------------------------------------------
Using INTEL Package without Coprocessor.
Compiler: Intel Classic C++ 20.21.5 / Intel(R) C++ g++ 9.3 mode
SIMD compiler directives: Enabled
Precision: double
----------------------------------------------------------
Neighbor list info ...
  update every 1 steps, delay 5 steps, check yes
  max neighbors/atom: 2000, page size: 100000
  master list distance cutoff = 5.95
  ghost atom cutoff = 5.95
  binsize = 2.975, bins = 73 73 73
  1 neighbor lists, perpetual/occasional/extra = 1 0 0
  (1) pair eam/intel, perpetual
      attributes: half, newton on, intel
      pair build: half/bin/newton/intel
      stencil: half/bin/3d
      bin: intel
Setting up Verlet run ...
  Unit style    : metal
  Current step  : 0
  Time step     : 0.005
Per MPI rank memory allocation (min/avg/max) = 948.8 | 948.8 | 948.8 Mbytes
Step Temp E_pair E_mol TotEng Press 
       0         1600     -3058560            0     -2879871    18704.136 
      50    780.51286   -2966447.6            0   -2879279.4    52309.328 
     100    798.57089     -2968477            0   -2879292.1    51460.466 
Loop time of 10.5604 on 8 procs for 100 steps with 864000 atoms

Performance: 4.091 ns/day, 5.867 hours/ns, 9.469 timesteps/s
74.3% CPU use with 8 MPI tasks x 1 OpenMP threads

MPI task timing breakdown:
Section |  min time  |  avg time  |  max time  |%varavg| %total
---------------------------------------------------------------
Pair    | 5.9611     | 6.4134     | 7.7539     |  27.8 | 60.73
Neigh   | 0.40326    | 0.4967     | 0.79502    |  21.3 |  4.70
Comm    | 1.6298     | 3.1865     | 3.7084     |  45.5 | 30.17
Output  | 0.00063537 | 0.0096899  | 0.01272    |   5.3 |  0.09
Modify  | 0.12228    | 0.1561     | 0.28389    |  14.4 |  1.48
Other   |            | 0.298      |            |       |  2.82

Nlocal:         108000 ave      108184 max      107816 min
Histogram: 1 0 0 1 2 2 1 0 0 1
Nghost:        42378.4 ave       42563 max       42195 min
Histogram: 1 0 0 1 2 2 1 0 0 1
Neighs:    4.07445e+06 ave 4.08265e+06 max 4.06633e+06 min
Histogram: 1 0 0 1 3 2 0 0 0 1

Total # of neighbors = 32595623
Ave neighs/atom = 37.726416
Neighbor list builds = 15
Dangerous builds = 0
Total wall time: 0:00:10
Intel(R) VTune(TM) Profiler 2022.2.0 collection completed successfully. Use the "aps --report /home/ubuntu/lammps/bench/aps_result_20220531" command to generate textual and HTML reports for the profiling session.
