LAMMPS (7 Jan 2022)
  using 1 OpenMP thread(s) per MPI task
Lattice spacing in x,y,z = 3.615 3.615 3.615
Created orthogonal box = (0 0 0) to (144.6 144.6 144.6)
  1 by 2 by 2 MPI processor grid
Created 256000 atoms
  using lattice units in orthogonal box = (0 0 0) to (144.6 144.6 144.6)
  create_atoms CPU = 0.018 seconds
Reading eam potential file Cu_u3.eam with DATE: 2007-06-11
----------------------------------------------------------
Using INTEL Package without Coprocessor.
Compiler: Intel Classic C++ 20.21.5 / Intel(R) C++ g++ 9.3 mode
SIMD compiler directives: Enabled
Precision: single
----------------------------------------------------------
Neighbor list info ...
  update every 1 steps, delay 5 steps, check yes
  max neighbors/atom: 2000, page size: 100000
  master list distance cutoff = 5.95
  ghost atom cutoff = 5.95
  binsize = 2.975, bins = 49 49 49
  1 neighbor lists, perpetual/occasional/extra = 1 0 0
  (1) pair eam/intel, perpetual
      attributes: half, newton on, intel
      pair build: half/bin/newton/intel
      stencil: half/bin/3d
      bin: intel
Setting up Verlet run ...
  Unit style    : metal
  Current step  : 0
  Time step     : 0.005
Per MPI rank memory allocation (min/avg/max) = 560.5 | 560.5 | 560.5 Mbytes
Step Temp E_pair E_mol TotEng Press 
       0         1600   -906369.84            0    -853425.1    18704.253 
      50    780.37024   -878944.61            0   -853121.79    52325.502 
     100    798.91522   -879561.58            0    -853125.1    51436.904 
Loop time of 3.10011 on 4 procs for 100 steps with 256000 atoms

Performance: 13.935 ns/day, 1.722 hours/ns, 32.257 timesteps/s
98.8% CPU use with 4 MPI tasks x 1 OpenMP threads

MPI task timing breakdown:
Section |  min time  |  avg time  |  max time  |%varavg| %total
---------------------------------------------------------------
Pair    | 2.479      | 2.5071     | 2.5409     |   1.7 | 80.87
Neigh   | 0.2496     | 0.25678    | 0.26821    |   1.5 |  8.28
Comm    | 0.16176    | 0.21114    | 0.25111    |   8.5 |  6.81
Output  | 0.00053779 | 0.00059627 | 0.00063837 |   0.0 |  0.02
Modify  | 0.077935   | 0.083826   | 0.088647   |   1.7 |  2.70
Other   |            | 0.04061    |            |       |  1.31

Nlocal:          64000 ave       64140 max       63718 min
Histogram: 1 0 0 0 0 0 0 0 2 1
Nghost:        32088.8 ave       32369 max       31950 min
Histogram: 1 2 0 0 0 0 0 0 0 1
Neighs:    2.41455e+06 ave 2.42027e+06 max 2.40328e+06 min
Histogram: 1 0 0 0 0 0 0 1 1 1

Total # of neighbors = 9658200
Ave neighs/atom = 37.727344
Neighbor list builds = 15
Dangerous builds = 0
Total wall time: 0:00:03
Intel(R) VTune(TM) Profiler 2022.2.0 collection completed successfully. Use the "aps --report /home/ubuntu/lammps/bench/aps_result_20220601" command to generate textual and HTML reports for the profiling session.
