LAMMPS (7 Jan 2022)
  using 1 OpenMP thread(s) per MPI task
New timer settings: style=full  mode=nosync  timeout=off
Lattice spacing in x,y,z = 3.615 3.615 3.615
Created orthogonal box = (0 0 0) to (289.2 289.2 289.2)
  2 by 2 by 4 MPI processor grid
Created 2048000 atoms
  using lattice units in orthogonal box = (0 0 0) to (289.2 289.2 289.2)
  create_atoms CPU = 0.028 seconds
Reading eam potential file Cu_u3.eam with DATE: 2007-06-11
----------------------------------------------------------
Using INTEL Package without Coprocessor.
Compiler: Intel Classic C++ 20.21.5 / Intel(R) C++ g++ 9.3 mode
SIMD compiler directives: Enabled
Precision: mixed
----------------------------------------------------------
Neighbor list info ...
  update every 1 steps, delay 5 steps, check yes
  max neighbors/atom: 2000, page size: 100000
  master list distance cutoff = 5.95
  ghost atom cutoff = 5.95
  binsize = 2.975, bins = 98 98 98
  1 neighbor lists, perpetual/occasional/extra = 1 0 0
  (1) pair eam/intel, perpetual
      attributes: half, newton on, intel
      pair build: half/bin/newton/intel
      stencil: half/bin/3d
      bin: intel
Setting up Verlet run ...
  Unit style    : metal
  Current step  : 0
  Time step     : 0.005
Per MPI rank memory allocation (min/avg/max) = 1093 | 1120 | 1147 Mbytes
Step Temp E_pair E_mol TotEng Press 
       0         1600   -7249918.3            0   -6826358.9    18704.056 
      50     780.8154   -7031660.7            0   -6824959.7    52291.357 
     100    798.21782   -7036295.1            0   -6824987.2    51479.461 
Loop time of 6.15359 on 16 procs for 100 steps with 2048000 atoms

Performance: 7.020 ns/day, 3.419 hours/ns, 16.251 timesteps/s
98.4% CPU use with 16 MPI tasks x 1 OpenMP threads

MPI task timing breakdown:
Section |  min time  |  avg time  |  max time  |%varavg|  %CPU | %total
-----------------------------------------------------------------------
Pair    | 4.8557     | 4.8934     | 4.9825     |   1.5 |  99.0 | 79.52
Neigh   | 0.45855    | 0.46487    | 0.48406    |   1.1 |  99.8 |  7.55
Comm    | 0.37555    | 0.47789    | 0.52221    |   6.0 |  91.5 |  7.77
Output  | 0.0011909  | 0.0015675  | 0.0026448  |   1.5 | 100.0 |  0.03
Modify  | 0.21212    | 0.22149    | 0.23348    |   1.2 |  97.4 |  3.60
Other   |            | 0.09433    |            |       |       |  1.53

Nlocal:         128000 ave      128295 max      127723 min
Histogram: 2 0 1 1 4 5 0 1 1 1
Nghost:        49866.6 ave       50143 max       49570 min
Histogram: 1 1 1 0 5 4 1 1 0 2
Neighs:    4.82891e+06 ave 4.85243e+06 max 4.80437e+06 min
Histogram: 3 2 1 2 0 0 3 0 1 4

Total # of neighbors = 77262598
Ave neighs/atom = 37.725878
Neighbor list builds = 15
Dangerous builds = 0
Total wall time: 0:00:06
Intel(R) VTune(TM) Profiler 2022.2.0 collection completed successfully. Use the "aps --report /home/ubuntu/lammps/bench/aps_result_20220519" command to generate textual and HTML reports for the profiling session.
