LAMMPS (7 Jan 2022)
  using 1 OpenMP thread(s) per MPI task
New timer settings: style=full  mode=nosync  timeout=off
Lattice spacing in x,y,z = 3.615 3.615 3.615
Created orthogonal box = (0 0 0) to (72.3 72.3 72.3)
  1 by 2 by 2 MPI processor grid
Created 32000 atoms
  using lattice units in orthogonal box = (0 0 0) to (72.3 72.3 72.3)
  create_atoms CPU = 0.003 seconds
Reading eam potential file Cu_u3.eam with DATE: 2007-06-11
----------------------------------------------------------
Using INTEL Package without Coprocessor.
Compiler: Intel Classic C++ 20.21.5 / Intel(R) C++ g++ 9.3 mode
SIMD compiler directives: Enabled
Precision: mixed
----------------------------------------------------------
Neighbor list info ...
  update every 1 steps, delay 5 steps, check yes
  max neighbors/atom: 2000, page size: 100000
  master list distance cutoff = 5.95
  ghost atom cutoff = 5.95
  binsize = 2.975, bins = 25 25 25
  1 neighbor lists, perpetual/occasional/extra = 1 0 0
  (1) pair eam/intel, perpetual
      attributes: half, newton on, intel
      pair build: half/bin/newton/intel
      stencil: half/bin/3d
      bin: intel
Setting up Verlet run ...
  Unit style    : metal
  Current step  : 0
  Time step     : 0.005
Per MPI rank memory allocation (min/avg/max) = 74.39 | 74.39 | 74.39 Mbytes
Step Temp E_pair E_mol TotEng Press 
       0         1600   -113279.97            0   -106662.06    18703.495 
      50    781.69067   -109873.35            0   -106640.13    52273.081 
     100     801.8322    -109957.3            0   -106640.76    51322.804 
Loop time of 0.436122 on 4 procs for 100 steps with 32000 atoms

Performance: 99.055 ns/day, 0.242 hours/ns, 229.294 timesteps/s
98.9% CPU use with 4 MPI tasks x 1 OpenMP threads

MPI task timing breakdown:
Section |  min time  |  avg time  |  max time  |%varavg|  %CPU | %total
-----------------------------------------------------------------------
Pair    | 0.35389    | 0.35517    | 0.35724    |   0.2 |  99.0 | 81.44
Neigh   | 0.031922   | 0.03256    | 0.033062   |   0.2 |  99.0 |  7.47
Comm    | 0.028704   | 0.032105   | 0.035004   |   1.4 |  97.6 |  7.36
Output  | 0.00010453 | 0.0001191  | 0.00013141 |   0.0 | 100.0 |  0.03
Modify  | 0.0094851  | 0.010683   | 0.011857   |   1.1 |  99.5 |  2.45
Other   |            | 0.005485   |            |       |       |  1.26

Nlocal:           8000 ave        8008 max        7993 min
Histogram: 2 0 0 0 0 0 0 0 1 1
Nghost:        9130.25 ave        9138 max        9122 min
Histogram: 2 0 0 0 0 0 0 0 0 2
Neighs:         301946 ave      302391 max      301359 min
Histogram: 1 0 0 0 1 0 0 0 1 1

Total # of neighbors = 1207782
Ave neighs/atom = 37.743187
Neighbor list builds = 13
Dangerous builds = 0
Total wall time: 0:00:00
Intel(R) VTune(TM) Profiler 2022.2.0 collection completed successfully. Use the "aps --report /home/ubuntu/lammps/bench/aps_result_20220519" command to generate textual and HTML reports for the profiling session.
