LAMMPS (7 Jan 2022)
  using 1 OpenMP thread(s) per MPI task
Lattice spacing in x,y,z = 3.615 3.615 3.615
Created orthogonal box = (0 0 0) to (72.3 72.3 72.3)
  1 by 2 by 2 MPI processor grid
Created 32000 atoms
  using lattice units in orthogonal box = (0 0 0) to (72.3 72.3 72.3)
  create_atoms CPU = 0.003 seconds
Reading eam potential file Cu_u3.eam with DATE: 2007-06-11
----------------------------------------------------------
Using INTEL Package without Coprocessor.
Compiler: Intel Classic C++ 20.21.5 / Intel(R) C++ g++ 9.3 mode
SIMD compiler directives: Enabled
Precision: mixed
----------------------------------------------------------
Neighbor list info ...
  update every 1 steps, delay 5 steps, check yes
  max neighbors/atom: 2000, page size: 100000
  master list distance cutoff = 5.95
  ghost atom cutoff = 5.95
  binsize = 2.975, bins = 25 25 25
  1 neighbor lists, perpetual/occasional/extra = 1 0 0
  (1) pair eam/intel, perpetual
      attributes: half, newton on, intel
      pair build: half/bin/newton/intel
      stencil: half/bin/3d
      bin: intel
Setting up Verlet run ...
  Unit style    : metal
  Current step  : 0
  Time step     : 0.005
Per MPI rank memory allocation (min/avg/max) = 74.39 | 74.39 | 74.39 Mbytes
Step Temp E_pair E_mol TotEng Press 
       0         1600   -113279.97            0   -106662.06    18703.495 
      50    781.69067   -109873.35            0   -106640.13    52273.081 
     100     801.8322    -109957.3            0   -106640.76    51322.804 
     150    794.67658   -109927.53            0    -106640.6    51669.272 
     200    795.75152   -109932.04            0   -106640.66    51628.991 
     250    797.58364   -109939.57            0   -106640.61    51564.203 
     300    793.23386    -109921.5            0   -106640.53      51741.3 
     350    799.19309    -109946.3            0   -106640.68    51461.927 
     400    797.16487   -109937.83            0    -106640.6    51585.697 
     450     794.8618   -109928.11            0    -106640.4    51651.453 
     500     796.7807   -109936.19            0   -106640.55    51565.306 
     550    796.68556   -109935.87            0   -106640.62    51580.825 
     600    799.55033   -109947.78            0   -106640.69    51434.183 
     650    800.85317   -109953.15            0   -106640.67    51407.315 
     700     791.7375   -109915.12            0   -106640.34    51729.901 
     750    801.43103   -109955.61            0   -106640.73    51340.952 
     800    797.91207   -109940.73            0   -106640.41    51527.914 
     850     803.7047   -109964.93            0   -106640.65    51322.351 
     900     805.3902   -109971.97            0   -106640.72    51275.517 
     950    799.24634   -109946.29            0   -106640.45    51489.079 
    1000    796.32637   -109933.98            0   -106640.22    51606.389 
    1050    793.61149   -109922.81            0   -106640.28    51685.476 
    1100    800.61135   -109951.76            0   -106640.28    51463.885 
    1150    795.80104   -109931.92            0   -106640.33    51540.862 
    1200    798.45601   -109943.04            0   -106640.47    51463.877 
    1250    800.54349   -109951.57            0   -106640.37    51438.529 
    1300     796.6714   -109935.45            0   -106640.26    51590.877 
    1350    798.01888   -109941.23            0   -106640.47    51529.752 
    1400    801.50723    -109955.7            0    -106640.5     51412.61 
    1450    797.39227   -109938.38            0   -106640.21    51538.553 
    1500    795.37391   -109930.04            0   -106640.22    51640.956 
    1550    799.91667   -109948.96            0   -106640.35    51441.095 
    1600    794.48773   -109926.34            0   -106640.18    51698.501 
    1650    799.15783   -109945.78            0   -106640.31    51451.762 
    1700    800.20949   -109950.11            0   -106640.28    51436.108 
    1750    798.51855   -109943.05            0   -106640.22    51527.548 
    1800    798.15706   -109941.54            0   -106640.21    51524.144 
    1850    796.87787   -109936.15            0    -106640.1    51496.451 
    1900    800.94017   -109953.13            0   -106640.28    51368.914 
    1950    800.08061   -109949.49            0    -106640.2    51478.508 
    2000    792.99903   -109920.02            0   -106640.02    51735.718 
    2050    795.90488   -109932.16            0   -106640.15    51601.969 
    2100    800.14571   -109949.87            0   -106640.31    51399.293 
    2150    799.45527   -109946.98            0   -106640.28    51475.927 
    2200    797.28106   -109937.87            0   -106640.16    51581.512 
    2250     791.8499    -109915.3            0   -106640.05    51789.139 
    2300    795.27591   -109929.61            0   -106640.19    51621.944 
    2350    796.86136   -109936.16            0   -106640.19    51655.885 
    2400    800.01926    -109949.4            0   -106640.36    51507.165 
    2450    796.30932   -109933.74            0   -106640.05    51655.493 
    2500    795.57413   -109930.79            0   -106640.14    51683.676 
    2550    799.28158   -109946.21            0   -106640.23    51418.391 
    2600     794.1573   -109924.81            0   -106640.02    51696.761 
    2650    797.17521   -109937.33            0   -106640.06     51549.96 
    2700    796.89056   -109936.18            0   -106640.09    51578.593 
    2750    798.09092   -109941.15            0   -106640.09    51573.039 
    2800     798.9596   -109944.89            0   -106640.24    51494.545 
    2850    798.58805   -109943.31            0    -106640.2    51524.461 
    2900    800.83908   -109952.76            0   -106640.33    51423.044 
    2950     796.2717   -109933.73            0    -106640.2    51635.562 
    3000    790.14525   -109908.08            0   -106639.89    51887.833 
    3050    797.41655    -109938.5            0   -106640.23    51508.971 
    3100    799.99233    -109949.2            0   -106640.27     51454.29 
    3150    801.46098   -109955.36            0   -106640.36    51435.787 
    3200    796.28442   -109933.77            0   -106640.18    51572.874 
    3250    802.93159   -109961.34            0   -106640.25    51314.987 
    3300    797.55819   -109939.18            0   -106640.32    51544.862 
    3350     799.1531   -109945.72            0   -106640.27    51507.068 
    3400    796.87952   -109936.36            0   -106640.31    51555.404 
    3450    796.02934   -109932.56            0   -106640.02      51625.4 
    3500    797.71641   -109939.77            0   -106640.26     51539.74 
    3550    796.28457   -109933.74            0   -106640.16    51646.496 
    3600    798.47751   -109942.88            0   -106640.22    51543.977 
    3650    795.28739   -109929.55            0   -106640.08    51608.429 
    3700    798.84874   -109944.44            0   -106640.25    51492.065 
    3750    798.25655   -109941.93            0   -106640.18    51514.114 
    3800    793.26799   -109921.12            0   -106640.01     51744.35 
    3850    797.08354    -109937.1            0   -106640.21    51568.275 
    3900    797.32637   -109938.13            0   -106640.23     51529.34 
    3950    799.87879   -109948.74            0   -106640.28    51417.634 
    4000    793.04543   -109920.19            0      -106640    51743.639 
    4050     795.4898   -109930.42            0   -106640.12    51654.383 
    4100    799.24681   -109946.04            0    -106640.2    51514.402 
    4150    800.86671    -109952.9            0   -106640.36    51438.077 
    4200      797.983   -109940.66            0   -106640.05    51595.218 
    4250     799.0633   -109945.44            0   -106640.36    51471.568 
    4300    795.76153   -109931.62            0    -106640.2    51632.788 
    4350     797.4711   -109938.55            0   -106640.05    51558.648 
    4400     799.8087   -109948.46            0    -106640.3    51456.181 
    4450    796.15626   -109933.14            0   -106640.09    51610.803 
    4500    797.45842   -109938.59            0   -106640.15    51507.871 
    4550    794.31578    -109925.5            0   -106640.05    51659.904 
    4600    798.85826    -109944.4            0   -106640.16    51481.342 
    4650    799.18649   -109945.78            0   -106640.19    51487.313 
    4700     798.2424   -109942.01            0   -106640.32    51449.064 
    4750    796.57722   -109935.15            0   -106640.35    51636.552 
    4800    796.38941   -109934.21            0   -106640.18    51592.585 
    4850    795.74143   -109931.56            0   -106640.22    51650.409 
    4900    799.30166   -109946.39            0   -106640.32    51490.242 
    4950    800.53954   -109951.43            0   -106640.24    51414.276 
    5000    794.05255   -109924.48            0   -106640.12    51695.925 
    5050     796.4627   -109934.48            0   -106640.16    51628.108 
    5100     796.2233   -109933.49            0   -106640.16    51595.235 
    5150    794.40759   -109925.86            0   -106640.04    51639.854 
    5200    796.13472   -109932.97            0      -106640    51554.274 
    5250    796.14277   -109933.07            0   -106640.07    51580.572 
    5300    800.76747   -109952.26            0   -106640.13    51363.515 
    5350    800.42564   -109950.84            0   -106640.13    51416.665 
    5400    794.32366   -109925.37            0   -106639.89    51643.813 
    5450    800.49612   -109951.09            0   -106640.08    51423.351 
    5500    799.04774   -109945.14            0   -106640.12    51498.014 
    5550    797.76969   -109939.76            0   -106640.03     51589.86 
    5600    801.72598   -109956.24            0   -106640.14    51322.351 
    5650    799.29821   -109946.13            0   -106640.08    51487.879 
    5700    797.05637   -109936.64            0   -106639.86    51559.892 
    5750    799.29242   -109946.17            0   -106640.14    51462.515 
    5800    797.05923   -109936.82            0   -106640.03    51520.895 
    5850    799.85529   -109948.44            0   -106640.09    51433.014 
    5900    794.33535   -109925.37            0   -106639.84    51683.012 
    5950     797.2861   -109937.78            0   -106640.05    51580.249 
    6000    792.10358   -109916.24            0   -106639.94    51774.736 
    6050    803.78901   -109964.89            0   -106640.27    51338.215 
    6100     797.4477   -109938.43            0   -106640.03    51549.337 
    6150    792.76848   -109919.06            0   -106640.01    51726.228 
    6200    801.99106   -109957.35            0   -106640.16    51364.712 
    6250    798.69745    -109943.6            0   -106640.03    51527.719 
    6300    791.26934   -109912.67            0   -106639.83    51738.616 
    6350    797.74079    -109939.7            0   -106640.09    51553.289 
    6400    799.37333    -109946.5            0   -106640.14    51477.864 
    6450    795.85788   -109931.71            0   -106639.88     51669.39 
    6500    798.02534   -109940.76            0   -106639.97    51543.503 
    6550    793.92524   -109923.57            0   -106639.74    51700.929 
    6600    791.53058   -109913.56            0   -106639.64    51809.776 
    6650    798.21429   -109941.42            0   -106639.85    51534.045 
    6700    795.13605   -109928.65            0   -106639.82    51600.173 
    6750    798.69639   -109943.55            0   -106639.99    51492.629 
    6800     799.4858   -109946.75            0   -106639.92    51477.122 
    6850    800.21645   -109949.96            0   -106640.11    51414.442 
    6900    799.36453   -109946.36            0   -106640.03    51480.937 
    6950    796.73309   -109935.25            0    -106639.8    51601.937 
    7000    796.86437    -109935.9            0   -106639.91    51614.714 
    7050    802.22343   -109958.16            0   -106640.01    51331.176 
    7100    799.83847   -109948.21            0   -106639.92    51428.185 
    7150     796.4266   -109934.18            0      -106640    51588.752 
    7200     797.1783   -109937.21            0   -106639.92    51554.191 
    7250    795.80325   -109931.42            0   -106639.82    51599.184 
    7300    802.33864   -109958.82            0   -106640.19    51352.867 
    7350    798.15411   -109941.34            0   -106640.02    51547.695 
    7400    794.01342   -109924.04            0   -106639.85    51733.123 
    7450    797.24353   -109937.61            0   -106640.05    51602.871 
    7500    794.15903   -109924.74            0   -106639.94    51651.104 
    7550    799.78487   -109948.06            0      -106640    51519.582 
    7600    794.58021   -109926.51            0   -106639.97    51667.763 
    7650    796.29848   -109933.75            0   -106640.11     51657.77 
    7700    796.01428   -109932.57            0    -106640.1    51643.369 
    7750    800.65008   -109951.87            0   -106640.23    51441.237 
    7800    795.02688   -109928.53            0   -106640.14    51635.436 
    7850    801.84141   -109956.89            0   -106640.32    51408.385 
    7900     793.9824   -109924.17            0    -106640.1    51704.119 
    7950    799.23848   -109946.04            0   -106640.23    51501.909 
    8000    797.85678   -109940.16            0   -106640.07      51532.2 
    8050    801.77549   -109956.55            0   -106640.25    51365.918 
    8100    794.26779   -109925.34            0   -106640.09    51668.725 
    8150    795.45648   -109930.08            0   -106639.91     51627.51 
    8200    796.69065   -109935.34            0   -106640.07    51539.656 
    8250    797.46706   -109938.45            0   -106639.97    51542.584 
    8300    798.53921   -109942.94            0   -106640.03    51517.576 
    8350    797.91959   -109940.37            0   -106640.02    51535.655 
    8400    797.79486   -109939.87            0   -106640.04    51553.069 
    8450    795.32672   -109929.49            0   -106639.87    51654.805 
    8500    798.99284   -109944.79            0      -106640    51510.999 
    8550    799.84537   -109948.44            0   -106640.12    51472.601 
    8600    794.67934   -109926.72            0   -106639.77    51661.379 
    8650    794.97872   -109928.05            0   -106639.86    51663.543 
    8700     797.6127   -109938.96            0   -106639.88    51576.814 
    8750    799.03414   -109945.05            0   -106640.09    51503.602 
    8800    794.91047   -109927.82            0   -106639.92    51603.141 
    8850    795.83143   -109931.74            0   -106640.03    51599.098 
    8900    797.16557   -109937.15            0   -106639.92    51567.809 
    8950    793.58152   -109922.22            0   -106639.81    51765.247 
    9000    796.74858   -109935.46            0   -106639.95    51579.882 
    9050    796.41656    -109933.9            0   -106639.76    51572.555 
    9100    793.43701   -109921.63            0   -106639.82     51719.73 
    9150    805.55253   -109972.06            0   -106640.13    51251.122 
    9200    798.23627   -109941.66            0      -106640    51493.496 
    9250       799.54   -109947.02            0   -106639.97      51430.5 
    9300    794.03353   -109923.99            0   -106639.71     51685.18 
    9350    798.93605   -109944.45            0   -106639.89    51498.852 
    9400    797.72354   -109939.37            0   -106639.83    51565.359 
    9450    793.72226    -109922.8            0   -106639.81    51689.366 
    9500    802.68516   -109960.09            0   -106640.03    51338.844 
    9550    793.58787   -109922.07            0   -106639.64    51646.969 
    9600    795.92115   -109931.86            0   -106639.77     51638.75 
    9650    799.23954   -109945.62            0   -106639.81    51452.513 
    9700    799.57924   -109947.09            0   -106639.87     51438.71 
    9750    794.86975   -109927.44            0    -106639.7    51625.846 
    9800    799.55762      -109947            0   -106639.87    51419.506 
    9850    805.17334   -109970.26            0   -106639.91    51237.378 
    9900     798.4582   -109942.32            0   -106639.74    51534.427 
    9950    797.40394   -109937.83            0   -106639.61    51571.235 
   10000    797.53364   -109938.53            0   -106639.78    51515.452 
Loop time of 32.3478 on 4 procs for 10000 steps with 32000 atoms

Performance: 133.549 ns/day, 0.180 hours/ns, 309.140 timesteps/s
99.6% CPU use with 4 MPI tasks x 1 OpenMP threads

MPI task timing breakdown:
Section |  min time  |  avg time  |  max time  |%varavg| %total
---------------------------------------------------------------
Pair    | 26.943     | 27.048     | 27.189     |   2.0 | 83.62
Neigh   | 2.6879     | 2.7128     | 2.7407     |   1.3 |  8.39
Comm    | 1.642      | 1.7936     | 1.9271     |   8.9 |  5.54
Output  | 0.0052953  | 0.00573    | 0.006367   |   0.5 |  0.02
Modify  | 0.48121    | 0.50266    | 0.52342    |   2.7 |  1.55
Other   |            | 0.2854     |            |       |  0.88

Nlocal:           8000 ave        8059 max        7957 min
Histogram: 1 0 1 0 1 0 0 0 0 1
Nghost:        9129.75 ave        9173 max        9071 min
Histogram: 1 0 0 0 0 1 0 1 0 1
Neighs:         301957 ave      304484 max      300203 min
Histogram: 1 1 0 0 1 0 0 0 0 1

Total # of neighbors = 1207827
Ave neighs/atom = 37.744594
Neighbor list builds = 1421
Dangerous builds = 1
Total wall time: 0:00:32
Intel(R) VTune(TM) Profiler 2022.2.0 collection completed successfully. Use the "aps --report /home/ubuntu/lammps/bench/aps_result_20220703" command to generate textual and HTML reports for the profiling session.
