LAMMPS (7 Jan 2022)
  using 1 OpenMP thread(s) per MPI task
Lattice spacing in x,y,z = 3.615 3.615 3.615
Created orthogonal box = (0 0 0) to (144.6 144.6 144.6)
  1 by 2 by 2 MPI processor grid
Created 256000 atoms
  using lattice units in orthogonal box = (0 0 0) to (144.6 144.6 144.6)
  create_atoms CPU = 0.018 seconds
Reading eam potential file Cu_u3.eam with DATE: 2007-06-11
----------------------------------------------------------
Using INTEL Package without Coprocessor.
Compiler: Intel Classic C++ 20.21.5 / Intel(R) C++ g++ 9.3 mode
SIMD compiler directives: Enabled
Precision: mixed
----------------------------------------------------------
Neighbor list info ...
  update every 1 steps, delay 5 steps, check yes
  max neighbors/atom: 2000, page size: 100000
  master list distance cutoff = 5.95
  ghost atom cutoff = 5.95
  binsize = 2.975, bins = 49 49 49
  1 neighbor lists, perpetual/occasional/extra = 1 0 0
  (1) pair eam/intel, perpetual
      attributes: half, newton on, intel
      pair build: half/bin/newton/intel
      stencil: half/bin/3d
      bin: intel
Setting up Verlet run ...
  Unit style    : metal
  Current step  : 0
  Time step     : 0.005
Per MPI rank memory allocation (min/avg/max) = 562.1 | 562.1 | 562.1 Mbytes
Step Temp E_pair E_mol TotEng Press 
       0         1600   -906239.72            0   -853294.98        18704 
      50     780.3702   -878942.74            0   -853119.92    52325.519 
     100    798.91517   -879560.78            0    -853124.3    51436.883 
     150    795.67989   -879452.85            0   -853123.43    51622.569 
     200    797.93058   -879527.84            0   -853123.94    51516.021 
     250    797.51839   -879514.04            0   -853123.78    51535.146 
     300    798.09566   -879533.18            0   -853123.82     51506.84 
     350    796.90748   -879493.26            0   -853123.22    51573.875 
     400    797.85427    -879524.9            0   -853123.53    51551.588 
     450    798.42111   -879543.81            0   -853123.69    51521.852 
     500    799.16298    -879568.5            0   -853123.82    51492.828 
     550    796.86463   -879491.85            0   -853123.22    51560.967 
     600    797.12603   -879500.45            0   -853123.18    51559.674 
     650    797.44461   -879511.36            0   -853123.54    51554.754 
     700     796.8283   -879490.61            0   -853123.19    51588.454 
     750    798.83292   -879557.23            0   -853123.48    51491.408 
     800    798.58728    -879549.1            0   -853123.48    51509.759 
     850    798.37464   -879541.82            0   -853123.23    51525.261 
     900     797.9526   -879527.46            0   -853122.83    51540.829 
     950    799.17455   -879568.43            0   -853123.37    51496.897 
    1000    799.63481   -879583.59            0    -853123.3    51479.031 
    1050    798.66425   -879551.48            0   -853123.31    51478.683 
    1100    796.94422   -879493.92            0   -853122.66     51569.57 
    1150    796.74675    -879487.3            0   -853122.58    51575.224 
    1200    796.28149   -879471.54            0   -853122.22    51603.361 
    1250    797.08279   -879498.21            0   -853122.37    51552.706 
    1300    797.46416    -879510.8            0   -853122.34    51557.821 
    1350    798.96342   -879560.71            0   -853122.63    51496.959 
    1400    797.16454   -879500.46            0   -853121.91    51584.576 
    1450    797.63143   -879516.19            0    -853122.2    51543.808 
    1500    799.23997   -879569.87            0   -853122.65    51500.675 
    1550    797.55434   -879513.59            0   -853122.14    51542.537 
    1600    798.00608   -879528.32            0   -853121.93    51533.443 
    1650    797.10061   -879498.22            0   -853121.78    51586.841 
    1700    798.49032      -879545            0   -853122.58    51508.279 
    1750    797.67139   -879516.95            0   -853121.63    51553.497 
    1800    798.28523   -879537.62            0   -853121.99    51527.492 
    1850    798.47218   -879543.46            0   -853121.65    51519.289 
    1900    800.26775   -879603.34            0   -853122.11    51455.567 
    1950    795.89128   -879457.89            0   -853121.47    51594.733 
    2000    798.54471   -879545.83            0   -853121.61    51521.012 
    2050    798.04201   -879528.96            0   -853121.37    51543.447 
    2100    798.80537   -879554.93            0   -853122.08    51513.745 
    2150    797.65602   -879516.18            0   -853121.36    51556.314 
    2200    797.78295   -879520.06            0   -853121.04    51528.119 
    2250     797.5652   -879513.12            0   -853121.31    51571.004 
    2300    797.13758   -879499.17            0   -853121.51    51553.999 
    2350    796.66814   -879482.77            0   -853120.64    51603.476 
    2400    797.87002      -879523            0   -853121.11    51545.305 
    2450     798.0135   -879528.02            0   -853121.38     51546.71 
    2500    797.27315    -879503.2            0   -853121.06    51568.006 
    2550     796.8161   -879488.05            0   -853121.03    51588.095 
    2600    796.70198   -879484.34            0    -853121.1    51612.954 
    2650    796.43764   -879475.28            0   -853120.78    51615.462 
    2700    796.11276   -879464.92            0   -853121.18    51605.577 
    2750    798.77034   -879553.07            0   -853121.38    51505.751 
    2800    798.28182   -879536.45            0   -853120.93    51545.113 
    2850    797.81764   -879521.09            0   -853120.93    51548.553 
    2900    797.33876   -879505.61            0   -853121.29    51563.257 
    2950    797.69564   -879517.33            0   -853121.21    51553.006 
    3000    797.32029   -879504.11            0   -853120.41    51576.087 
    3050    798.22591   -879534.74            0   -853121.07    51523.094 
    3100    799.01554   -879561.04            0   -853121.24    51500.573 
    3150    797.90348   -879524.07            0   -853121.07    51539.849 
    3200    798.17918   -879532.82            0    -853120.7    51537.808 
    3250    799.52681   -879578.18            0   -853121.46    51492.621 
    3300    796.49605   -879476.98            0   -853120.55    51606.217 
    3350    798.03692   -879527.77            0   -853120.35    51527.011 
    3400    797.13952   -879498.05            0   -853120.33    51580.379 
    3450    796.67151   -879482.52            0   -853120.29    51596.835 
    3500     798.9276   -879557.54            0   -853120.65    51489.216 
    3550    799.29326   -879569.36            0   -853120.37    51491.161 
    3600    798.39456   -879539.72            0   -853120.47     51514.46 
    3650    797.73208    -879517.3            0   -853119.97    51559.454 
    3700    800.29221   -879602.78            0   -853120.74    51453.954 
    3750    799.03433   -879560.67            0   -853120.25    51492.284 
    3800    798.05034    -879528.1            0   -853120.24    51540.484 
    3850    795.91595   -879456.57            0   -853119.34     51640.47 
    3900    798.27701   -879535.76            0    -853120.4    51524.684 
    3950    797.06851   -879495.38            0   -853120.01    51568.504 
    4000    798.70206   -879549.11            0   -853119.68    51504.674 
    4050    797.52956   -879510.43            0    -853119.8    51557.889 
    4100    798.44156   -879540.98            0   -853120.18    51505.644 
    4150    798.42629   -879540.55            0   -853120.25    51520.599 
    4200    796.98757   -879491.97            0   -853119.28    51588.547 
    4250    799.17288   -879564.77            0   -853119.77    51487.616 
    4300    798.38679    -879538.6            0    -853119.6    51520.902 
    4350    796.90045   -879489.07            0   -853119.26    51591.824 
    4400    796.46018   -879474.57            0   -853119.33    51598.576 
    4450    797.67257   -879514.54            0   -853119.18    51537.033 
    4500    798.27202   -879534.94            0   -853119.74    51528.294 
    4550    797.95978   -879524.36            0   -853119.49    51541.667 
    4600    796.89323   -879488.83            0   -853119.26    51584.548 
    4650    797.09414   -879495.71            0   -853119.49    51577.577 
    4700    797.01224   -879492.86            0   -853119.35    51581.606 
    4750    798.68645   -879548.37            0   -853119.46    51506.383 
    4800    798.13556   -879529.86            0   -853119.18    51541.495 
    4850    797.61154   -879512.67            0   -853119.33    51542.626 
    4900     797.6263   -879512.91            0   -853119.08    51562.059 
    4950    797.93339   -879522.67            0   -853118.69    51540.396 
    5000    797.63371      -879513            0   -853118.93    51555.643 
    5050    798.10927   -879528.55            0   -853118.74    51522.073 
    5100    797.80049   -879518.44            0   -853118.85    51535.091 
    5150    796.09786   -879461.46            0   -853118.21    51612.201 
    5200    798.45915   -879540.22            0   -853118.83    51540.679 
    5250    796.92456   -879488.99            0   -853118.38    51583.804 
    5300    798.53148    -879542.6            0   -853118.82      51537.2 
    5350    797.44943   -879506.43            0   -853118.45    51571.461 
    5400    797.07954   -879494.13            0   -853118.39    51565.341 
    5450    796.40919   -879471.64            0   -853118.09      51621.2 
    5500    797.58509   -879510.85            0   -853118.38    51559.095 
    5550    796.53277   -879475.96            0   -853118.32    51606.893 
    5600    798.77929   -879550.59            0   -853118.61    51527.218 
    5650    797.52159   -879508.26            0    -853117.9    51569.166 
    5700     797.3159   -879501.87            0   -853118.31    51551.038 
    5750    795.77623   -879450.28            0   -853117.67    51609.178 
    5800      797.995   -879524.07            0   -853118.04    51541.415 
    5850    797.03424   -879492.46            0   -853118.23    51573.387 
    5900    797.78925   -879517.22            0      -853118    51558.594 
    5950    798.37346   -879536.89            0   -853118.34    51533.732 
    6000    797.93175   -879522.15            0   -853118.21    51552.894 
    6050    797.55223   -879509.34            0   -853117.96    51554.825 
    6100    797.31347   -879501.64            0   -853118.16    51564.992 
    6150    798.49653   -879540.85            0   -853118.23    51530.141 
    6200    798.84513   -879552.32            0   -853118.16    51509.789 
    6250    798.84461   -879551.91            0   -853117.77    51502.742 
    6300    795.78041    -879449.8            0   -853117.06    51640.297 
    6350    797.84427   -879519.06            0   -853118.02    51553.589 
    6400    798.48908   -879540.12            0   -853117.74    51530.536 
    6450    798.04705   -879525.34            0   -853117.59    51538.634 
    6500    795.82794   -879451.35            0   -853117.03    51623.288 
    6550    797.38863   -879503.49            0   -853117.53     51571.73 
    6600    799.38677   -879570.09            0   -853118.01    51482.425 
    6650    797.86582    -879519.1            0   -853117.35    51540.914 
    6700    798.49611   -879540.32            0   -853117.71    51537.259 
    6750    798.42064   -879538.16            0   -853118.05    51528.771 
    6800    796.48256   -879473.25            0   -853117.27    51607.242 
    6850    797.62415   -879511.46            0    -853117.7     51559.77 
    6900    798.10518   -879527.37            0   -853117.69    51533.462 
    6950    797.65184   -879512.24            0   -853117.56    51562.792 
    7000    797.80412   -879517.27            0   -853117.56    51544.927 
    7050    797.18071   -879496.28            0    -853117.2    51587.187 
    7100      796.922   -879487.79            0   -853117.27    51567.662 
    7150    798.90728   -879554.12            0   -853117.91    51493.783 
    7200    797.20547   -879497.16            0   -853117.26    51574.729 
    7250    798.07853   -879525.96            0   -853117.17    51541.367 
    7300    798.27711   -879532.73            0   -853117.36     51521.78 
    7350    797.63913   -879511.36            0   -853117.11    51540.825 
    7400     796.9188    -879487.7            0   -853117.28    51589.414 
    7450    796.53567   -879474.67            0   -853116.93    51617.323 
    7500    798.02005   -879524.05            0    -853117.2    51545.977 
    7550    795.97042   -879455.64            0    -853116.6    51617.632 
    7600    798.09571    -879526.6            0   -853117.24    51552.393 
    7650    798.57197   -879542.48            0   -853117.36    51522.788 
    7700      798.577   -879542.04            0   -853116.75     51517.01 
    7750    798.93076    -879554.1            0    -853117.1     51525.25 
    7800    798.44191   -879537.48            0   -853116.67    51542.648 
    7850     797.3427    -879501.3            0   -853116.85    51566.731 
    7900    796.06138   -879458.51            0   -853116.47    51625.718 
    7950    798.30526   -879532.34            0   -853116.04    51536.269 
    8000    796.80518   -879482.94            0   -853116.28    51591.791 
    8050    796.00759   -879456.62            0   -853116.35    51613.179 
    8100    798.48558   -879538.85            0   -853116.59     51501.28 
    8150    798.55908   -879541.29            0    -853116.6    51506.727 
    8200    797.79747   -879515.74            0   -853116.24    51551.195 
    8250    796.73375   -879480.36            0   -853116.07    51595.036 
    8300    798.77389   -879548.46            0   -853116.66    51511.577 
    8350    798.94711   -879554.49            0   -853116.95    51509.234 
    8400    798.64821   -879543.98            0   -853116.34    51523.927 
    8450    797.47192   -879504.66            0   -853115.94    51564.201 
    8500    798.37128   -879534.69            0   -853116.21    51527.694 
    8550    797.48802   -879505.41            0   -853116.16    51571.087 
    8600    800.17112    -879594.9            0   -853116.86    51451.402 
    8650    797.32835   -879499.99            0   -853116.03    51581.709 
    8700    798.78216   -879548.31            0   -853116.24    51485.406 
    8750    798.13446   -879526.99            0   -853116.35    51548.031 
    8800    796.64174   -879477.16            0   -853115.91    51588.412 
    8850    797.06531   -879490.77            0   -853115.51    51601.574 
    8900    798.72198   -879545.95            0   -853115.87    51528.205 
    8950    798.69489   -879545.06            0   -853115.88    51513.721 
    9000    798.64995   -879543.34            0   -853115.63    51538.378 
    9050    798.64839   -879543.26            0   -853115.62    51522.045 
    9100    798.98984    -879554.7            0   -853115.75    51500.455 
    9150    798.09518   -879525.13            0   -853115.79    51541.034 
    9200    798.06188      -879524            0   -853115.76    51547.883 
    9250    799.49449   -879571.62            0   -853115.98    51495.145 
    9300    797.93197   -879519.36            0   -853115.42    51562.449 
    9350    796.21851    -879462.5            0   -853115.25    51630.144 
    9400    797.80275   -879514.97            0    -853115.3    51580.483 
    9450     799.1954   -879561.23            0   -853115.48    51511.293 
    9500    797.04484   -879489.84            0   -853115.25    51583.799 
    9550    799.71401   -879578.41            0    -853115.5    51465.095 
    9600    798.28426   -879530.72            0   -853115.12    51559.837 
    9650    798.42139   -879535.17            0   -853115.03     51532.44 
    9700    797.16561    -879493.2            0   -853114.62    51568.276 
    9750    797.56835   -879507.13            0   -853115.22    51558.654 
    9800    797.01453   -879488.31            0   -853114.73    51575.005 
    9850     797.1297   -879492.27            0   -853114.87    51557.792 
    9900    797.29303   -879497.66            0   -853114.86     51572.15 
    9950    799.11126   -879557.81            0   -853114.85    51504.419 
   10000    798.57516   -879539.97            0   -853114.75    51520.444 
Loop time of 252.458 on 4 procs for 10000 steps with 256000 atoms

Performance: 17.112 ns/day, 1.403 hours/ns, 39.611 timesteps/s
99.7% CPU use with 4 MPI tasks x 1 OpenMP threads

MPI task timing breakdown:
Section |  min time  |  avg time  |  max time  |%varavg| %total
---------------------------------------------------------------
Pair    | 210.99     | 211.49     | 212.67     |   4.7 | 83.77
Neigh   | 21.881     | 21.965     | 22.049     |   1.3 |  8.70
Comm    | 9.7186     | 10.665     | 11.478     |  19.5 |  4.22
Output  | 0.039098   | 0.03965    | 0.040387   |   0.2 |  0.02
Modify  | 5.4149     | 5.6635     | 5.9011     |   9.7 |  2.24
Other   |            | 2.636      |            |       |  1.04

Nlocal:          64000 ave       64103 max       63885 min
Histogram: 1 1 0 0 0 0 0 0 0 2
Nghost:        32089.5 ave       32205 max       31986 min
Histogram: 2 0 0 0 0 0 0 0 1 1
Neighs:    2.41643e+06 ave 2.42051e+06 max 2.41145e+06 min
Histogram: 1 0 0 1 0 0 0 0 1 1

Total # of neighbors = 9665715
Ave neighs/atom = 37.756699
Neighbor list builds = 1526
Dangerous builds = 2
Total wall time: 0:04:12
Intel(R) VTune(TM) Profiler 2022.2.0 collection completed successfully. Use the "aps --report /home/ubuntu/lammps/bench/aps_result_20220703" command to generate textual and HTML reports for the profiling session.
