LAMMPS (7 Jan 2022)
  using 1 OpenMP thread(s) per MPI task
Lattice spacing in x,y,z = 3.615 3.615 3.615
Created orthogonal box = (0 0 0) to (289.2 289.2 289.2)
  2 by 2 by 4 MPI processor grid
Created 2048000 atoms
  using lattice units in orthogonal box = (0 0 0) to (289.2 289.2 289.2)
  create_atoms CPU = 0.027 seconds
Reading eam potential file Cu_u3.eam with DATE: 2007-06-11
----------------------------------------------------------
Using INTEL Package without Coprocessor.
Compiler: Intel Classic C++ 20.21.5 / Intel(R) C++ g++ 9.3 mode
SIMD compiler directives: Enabled
Precision: double
----------------------------------------------------------
Neighbor list info ...
  update every 1 steps, delay 5 steps, check yes
  max neighbors/atom: 2000, page size: 100000
  master list distance cutoff = 5.95
  ghost atom cutoff = 5.95
  binsize = 2.975, bins = 98 98 98
  1 neighbor lists, perpetual/occasional/extra = 1 0 0
  (1) pair eam/intel, perpetual
      attributes: half, newton on, intel
      pair build: half/bin/newton/intel
      stencil: half/bin/3d
      bin: intel
Setting up Verlet run ...
  Unit style    : metal
  Current step  : 0
  Time step     : 0.005
Per MPI rank memory allocation (min/avg/max) = 1096 | 1123 | 1150 Mbytes
Step Temp E_pair E_mol TotEng Press 
       0         1600     -7249920            0   -6826360.6    18704.149 
      50    780.81547   -7031660.9            0   -6824959.8    52291.364 
     100    798.21786   -7036295.3            0   -6824987.4    51479.467 
Loop time of 6.12019 on 16 procs for 100 steps with 2048000 atoms

Performance: 7.059 ns/day, 3.400 hours/ns, 16.339 timesteps/s
98.5% CPU use with 16 MPI tasks x 1 OpenMP threads

MPI task timing breakdown:
Section |  min time  |  avg time  |  max time  |%varavg| %total
---------------------------------------------------------------
Pair    | 4.6031     | 4.8378     | 4.9738     |   4.0 | 79.05
Neigh   | 0.46668    | 0.51388    | 0.54316    |   2.5 |  8.40
Comm    | 0.35189    | 0.48491    | 0.77698    |  15.4 |  7.92
Output  | 0.00097658 | 0.001332   | 0.0022919  |   1.4 |  0.02
Modify  | 0.18825    | 0.19812    | 0.20936    |   1.3 |  3.24
Other   |            | 0.08416    |            |       |  1.38

Nlocal:         128000 ave      128295 max      127723 min
Histogram: 2 0 1 1 4 5 0 1 1 1
Nghost:        49866.6 ave       50143 max       49570 min
Histogram: 1 1 1 0 5 4 1 1 0 2
Neighs:    4.82891e+06 ave 4.85243e+06 max 4.80436e+06 min
Histogram: 3 2 0 3 0 0 3 0 1 4

Total # of neighbors = 77262570
Ave neighs/atom = 37.725864
Neighbor list builds = 15
Dangerous builds = 0
Total wall time: 0:00:06
Intel(R) VTune(TM) Profiler 2022.2.0 collection completed successfully. Use the "aps --report /home/ubuntu/lammps/bench/aps_result_20220601" command to generate textual and HTML reports for the profiling session.
