LAMMPS (7 Jan 2022)
  using 1 OpenMP thread(s) per MPI task
Lattice spacing in x,y,z = 3.615 3.615 3.615
Created orthogonal box = (0 0 0) to (289.2 289.2 289.2)
  2 by 2 by 2 MPI processor grid
Created 2048000 atoms
  using lattice units in orthogonal box = (0 0 0) to (289.2 289.2 289.2)
  create_atoms CPU = 0.043 seconds
Reading eam potential file Cu_u3.eam with DATE: 2007-06-11
----------------------------------------------------------
Using INTEL Package without Coprocessor.
Compiler: Intel Classic C++ 20.21.5 / Intel(R) C++ g++ 9.3 mode
SIMD compiler directives: Enabled
Precision: mixed
----------------------------------------------------------
Neighbor list info ...
  update every 1 steps, delay 5 steps, check yes
  max neighbors/atom: 2000, page size: 100000
  master list distance cutoff = 5.95
  ghost atom cutoff = 5.95
  binsize = 2.975, bins = 98 98 98
  1 neighbor lists, perpetual/occasional/extra = 1 0 0
  (1) pair eam/intel, perpetual
      attributes: half, newton on, intel
      pair build: half/bin/newton/intel
      stencil: half/bin/3d
      bin: intel
Setting up Verlet run ...
  Unit style    : metal
  Current step  : 0
  Time step     : 0.005
Per MPI rank memory allocation (min/avg/max) = 2233 | 2233 | 2233 Mbytes
Step Temp E_pair E_mol TotEng Press 
       0         1600   -7249918.3            0   -6826358.9    18704.056 
      50     780.8154   -7031660.7            0   -6824959.7    52291.357 
     100    798.21781   -7036295.1            0   -6824987.2    51479.463 
     150     797.4476   -7036092.2            0   -6824988.1    51537.978 
     200    797.94534   -7036225.3            0   -6824989.5    51521.859 
     250    797.47926   -7036101.1            0   -6824988.7    51545.002 
     300    798.50355   -7036374.2            0   -6824990.6    51508.821 
     350    797.57274   -7036125.2            0     -6824988     51546.56 
     400    797.67078   -7036151.8            0   -6824988.7    51542.639 
     450    798.03855   -7036249.7            0   -6824989.2    51530.815 
     500    797.62468   -7036139.7            0   -6824988.8    51552.177 
     550    797.88069   -7036206.8            0   -6824988.1    51537.724 
     600    798.01068     -7036242            0   -6824988.9    51526.865 
     650    797.37479   -7036071.9            0   -6824987.2     51553.93 
     700    797.64932   -7036144.4            0     -6824987    51546.397 
     750    797.41575   -7036081.9            0   -6824986.3    51554.389 
     800    796.99554     -7035970            0   -6824985.7     51570.46 
     850    797.57839   -7036124.7            0     -6824986    51550.406 
     900    797.44511   -7036088.6            0   -6824985.2    51556.888 
     950    797.96081   -7036225.8            0   -6824985.9     51532.88 
    1000    797.30259   -7036049.1            0   -6824983.4    51568.481 
    1050    797.51306     -7036106            0   -6824984.6    51548.377 
    1100    797.23003     -7036029            0   -6824982.6    51564.967 
    1150    798.04742   -7036247.7            0   -6824984.9    51532.746 
    1200    798.00822   -7036235.6            0   -6824983.2    51541.247 
    1250    797.54034   -7036110.7            0   -6824982.1    51556.217 
    1300    797.86128     -7036196            0   -6824982.4    51539.232 
    1350    797.74262   -7036163.9            0   -6824981.8    51545.695 
    1400    797.51091   -7036101.6            0   -6824980.8    51558.961 
    1450    797.50745   -7036100.6            0   -6824980.7    51549.226 
    1500    798.06485   -7036248.9            0   -6824981.5    51535.429 
    1550    797.43175   -7036079.5            0   -6824979.7    51564.642 
    1600    797.35288     -7036058            0   -6824979.1    51567.144 
    1650    797.92737   -7036211.3            0   -6824980.3    51536.519 
    1700    797.07741   -7035985.4            0   -6824979.3        51568 
    1750    797.60869   -7036125.8            0   -6824979.1    51552.225 
    1800    798.03515   -7036239.4            0   -6824979.8    51529.139 
    1850    798.10171     -7036256            0   -6824978.9    51533.376 
    1900    798.24761   -7036294.7            0   -6824978.9     51527.35 
    1950    797.70994   -7036150.6            0   -6824977.2    51551.489 
    2000    797.84705   -7036187.4            0   -6824977.7    51545.523 
    2050    798.30813   -7036309.9            0   -6824978.1    51525.124 
    2100    797.89062   -7036198.4            0   -6824977.1    51542.929 
    2150    797.55865   -7036109.7            0   -6824976.2    51553.941 
    2200    797.59436   -7036118.4            0   -6824975.5    51555.927 
    2250    797.74842   -7036159.9            0   -6824976.2    51544.484 
    2300    797.72855   -7036154.3            0   -6824975.8    51540.619 
    2350    796.99863   -7035959.2            0     -6824974    51567.083 
    2400    797.99789   -7036225.9            0   -6824976.2    51533.123 
    2450    798.11133     -7036255            0   -6824975.2    51534.032 
    2500    797.71685     -7036149            0   -6824973.7    51542.595 
    2550    797.84395     -7036183            0     -6824974     51550.15 
    2600    797.83004   -7036178.3            0     -6824973    51543.278 
    2650    797.54424   -7036101.6            0     -6824972    51553.857 
    2700    797.94233   -7036207.2            0   -6824972.2    51541.009 
    2750     798.0037   -7036223.4            0   -6824972.1    51535.024 
    2800    797.99446   -7036221.5            0   -6824972.7    51536.432 
    2850    798.17485   -7036267.8            0   -6824971.2    51536.142 
    2900     797.4191   -7036065.5            0     -6824969    51555.305 
    2950    797.79019   -7036164.9            0   -6824970.2    51550.328 
    3000    797.46859   -7036078.7            0   -6824969.1    51560.367 
    3050    797.47073   -7036079.6            0   -6824969.4    51564.217 
    3100    798.22709   -7036279.8            0   -6824969.5    51532.893 
    3150    797.98781   -7036215.9            0   -6824968.8    51546.062 
    3200    798.04497   -7036230.1            0   -6824967.9    51540.475 
    3250    798.13663   -7036253.8            0   -6824967.3    51534.363 
    3300    798.63219   -7036385.4            0   -6824967.8    51509.844 
    3350    798.20983   -7036273.6            0   -6824967.8    51535.823 
    3400    798.20924   -7036273.4            0   -6824967.7    51534.949 
    3450    797.72363   -7036143.5            0   -6824966.4    51556.462 
    3500    797.31262   -7036032.2            0   -6824963.9    51566.909 
    3550    798.25512   -7036284.2            0   -6824966.4    51532.534 
    3600    798.04632     -7036229            0   -6824966.5    51538.852 
    3650    797.38678   -7036051.7            0   -6824963.7    51561.293 
    3700    797.29769   -7036027.7            0   -6824963.4    51574.827 
    3750    797.95183     -7036201            0   -6824963.5     51539.86 
    3800    797.69087   -7036130.8            0   -6824962.4    51549.959 
    3850    797.55955   -7036096.3            0   -6824962.7    51561.745 
    3900    797.73161   -7036142.1            0   -6824962.9    51548.844 
    3950    797.95835   -7036200.6            0   -6824961.4    51539.603 
    4000    798.45697   -7036333.2            0   -6824961.9    51520.543 
    4050    797.68917   -7036128.4            0   -6824960.4    51554.751 
    4100     797.7541     -7036146            0   -6824960.8    51547.794 
    4150    798.10688   -7036239.8            0   -6824961.3    51540.463 
    4200    797.73924   -7036141.2            0     -6824960     51549.38 
    4250    798.04011   -7036220.7            0   -6824959.8    51539.271 
    4300    797.90391   -7036184.8            0     -6824960    51546.697 
    4350    798.02366   -7036216.8            0   -6824960.3    51539.453 
    4400    797.77038   -7036148.8            0   -6824959.3    51547.374 
    4450    797.83186   -7036164.9            0   -6824959.1    51543.102 
    4500    797.89289   -7036181.1            0   -6824959.1    51547.871 
    4550    798.05792   -7036224.8            0   -6824959.2    51539.632 
    4600    797.44664     -7036061            0   -6824957.2    51567.185 
    4650    797.58978   -7036100.8            0   -6824959.1     51552.82 
    4700    797.84836   -7036168.1            0     -6824958    51551.172 
    4750    797.96899   -7036200.4            0   -6824958.3    51538.938 
    4800     798.0428   -7036219.7            0   -6824958.1    51536.564 
    4850    797.91305   -7036185.2            0     -6824958     51548.38 
    4900     797.8173   -7036159.5            0   -6824957.6    51548.004 
    4950    796.93877   -7035925.3            0   -6824955.9    51585.376 
    5000    797.71888   -7036131.3            0   -6824955.4    51549.318 
    5050    797.88045   -7036175.2            0   -6824956.6    51545.828 
    5100     798.2215   -7036265.4            0   -6824956.5    51526.019 
    5150    797.66845   -7036117.2            0   -6824954.7    51555.776 
    5200    797.91895   -7036183.6            0   -6824954.8     51545.64 
    5250    798.51023   -7036341.5            0   -6824956.2    51518.691 
    5300    797.93535   -7036188.5            0   -6824955.3    51538.705 
    5350    797.52439   -7036078.4            0   -6824954.1    51559.733 
    5400    797.26583   -7036008.7            0   -6824952.8    51572.048 
    5450    798.41922   -7036315.9            0   -6824954.7    51524.499 
    5500    797.94899   -7036191.2            0   -6824954.5    51539.405 
    5550    797.73429   -7036132.8            0   -6824952.9    51550.585 
    5600    797.37981   -7036037.5            0   -6824951.5    51562.905 
    5650    797.87967   -7036169.8            0   -6824951.4        51544 
    5700    797.83395   -7036156.9            0   -6824950.6    51544.298 
    5750    797.68871   -7036118.1            0   -6824950.3    51553.934 
    5800     798.1433   -7036239.8            0   -6824951.6    51537.085 
    5850    797.57356     -7036088            0   -6824950.6    51566.064 
    5900    798.60577   -7036362.1            0   -6824951.5     51517.79 
    5950    797.48236     -7036063            0   -6824949.7    51560.677 
    6000    797.26974   -7036005.8            0   -6824948.9    51572.899 
    6050    797.91354   -7036177.5            0   -6824950.1    51546.967 
    6100    797.47344     -7036060            0   -6824949.1     51561.55 
    6150    797.99506   -7036197.2            0   -6824948.2    51539.466 
    6200    797.86229   -7036162.1            0   -6824948.3    51548.329 
    6250    797.96372   -7036188.4            0   -6824947.7    51545.797 
    6300    797.99623   -7036198.2            0   -6824948.9    51535.148 
    6350    797.88445   -7036168.1            0   -6824948.4    51543.945 
    6400    797.25193   -7035998.8            0   -6824946.6    51570.784 
    6450    797.99184   -7036196.2            0   -6824948.1     51543.43 
    6500    797.68814   -7036114.4            0   -6824946.7    51560.599 
    6550    797.44079   -7036048.4            0   -6824946.2    51561.144 
    6600    798.05795   -7036212.7            0   -6824947.1    51533.712 
    6650    797.45398     -7036051            0   -6824945.3     51564.32 
    6700    798.14225   -7036234.1            0   -6824946.2    51539.383 
    6750    797.82914   -7036149.4            0   -6824944.3    51547.918 
    6800    797.60532   -7036090.8            0     -6824945    51560.868 
    6850    797.78921   -7036138.6            0   -6824944.2    51552.834 
    6900    797.90389   -7036169.5            0   -6824944.6    51543.826 
    6950    797.77271   -7036134.6            0   -6824944.5    51549.969 
    7000    798.38433   -7036295.9            0   -6824943.8    51524.543 
    7050    797.88216   -7036161.3            0   -6824942.3    51551.821 
    7100    797.44797   -7036046.5            0   -6824942.4    51566.779 
    7150    797.69127   -7036111.3            0   -6824942.8    51552.866 
    7200    797.56982   -7036077.6            0   -6824941.2    51563.976 
    7250    797.31572   -7036008.4            0   -6824939.3     51574.32 
    7300    798.29775     -7036270            0   -6824940.9    51531.321 
    7350    797.67972   -7036105.4            0   -6824939.9    51555.084 
    7400    797.87414   -7036156.2            0   -6824939.3    51550.111 
    7450    797.65894   -7036100.3            0   -6824940.3    51556.734 
    7500    797.71365   -7036114.2            0   -6824939.8    51561.527 
    7550     797.7567   -7036124.3            0   -6824938.5    51551.317 
    7600    797.99572   -7036188.4            0   -6824939.2    51540.058 
    7650    798.12345   -7036220.3            0   -6824937.3    51526.854 
    7700    797.95577   -7036175.4            0   -6824936.8    51541.762 
    7750    797.51656   -7036058.5            0   -6824936.2    51557.854 
    7800    797.83445   -7036143.5            0   -6824937.1    51548.023 
    7850    797.60736   -7036083.2            0   -6824936.8    51555.301 
    7900    798.13442   -7036222.8            0     -6824937    51534.811 
    7950     798.5511   -7036334.3            0   -6824938.2    51521.677 
    8000    798.09205   -7036211.1            0   -6824936.4    51539.548 
    8050    797.96761   -7036176.7            0     -6824935      51546.5 
    8100    798.11569   -7036216.9            0     -6824936    51538.178 
    8150    797.78422     -7036128            0   -6824934.9    51550.297 
    8200     797.7144   -7036109.5            0   -6824934.8    51555.973 
    8250    798.19901   -7036237.5            0   -6824934.6    51535.424 
    8300    797.98085   -7036178.5            0   -6824933.3    51545.712 
    8350     798.0786     -7036206            0   -6824934.9    51538.037 
    8400    798.08688   -7036206.9            0   -6824933.7     51538.37 
    8450    797.92176   -7036161.5            0     -6824932    51560.689 
    8500     797.8038   -7036130.3            0     -6824932    51549.967 
    8550    797.90888   -7036158.6            0   -6824932.4     51541.59 
    8600    798.04474   -7036194.1            0     -6824932    51542.371 
    8650    797.11835   -7035946.2            0   -6824929.3    51580.345 
    8700    798.08116   -7036204.3            0   -6824932.5    51541.242 
    8750     797.8186     -7036133            0   -6824930.8    51554.328 
    8800    798.27254   -7036252.7            0   -6824930.3    51537.961 
    8850    798.21172   -7036237.8            0   -6824931.4     51536.08 
    8900    798.32702   -7036267.5            0   -6824930.6    51528.911 
    8950    797.48026   -7036041.7            0   -6824929.1    51561.322 
    9000     797.5611   -7036062.2            0   -6824928.1    51562.473 
    9050     797.8373   -7036135.7            0   -6824928.5    51549.247 
    9100    797.72418   -7036104.6            0   -6824927.4    51553.972 
    9150    797.52543   -7036051.8            0   -6824927.1    51562.255 
    9200    798.26984   -7036250.2            0   -6824928.5    51537.486 
    9250    797.83446   -7036135.1            0   -6824928.7     51550.96 
    9300    797.82402     -7036131            0   -6824927.4    51555.083 
    9350    797.89395   -7036149.6            0   -6824927.5    51550.751 
    9400    797.86469   -7036141.6            0   -6824927.2    51553.039 
    9450     797.7307   -7036104.6            0   -6824925.6    51552.635 
    9500    797.85515   -7036137.6            0   -6824925.7    51547.278 
    9550     798.3054   -7036256.6            0   -6824925.5    51534.128 
    9600    797.51065   -7036044.5            0   -6824923.8    51569.769 
    9650    797.08925   -7035932.4            0   -6824923.2    51586.384 
    9700    797.29199   -7035984.9            0     -6824922    51569.257 
    9750    797.68834   -7036090.7            0     -6824923    51556.979 
    9800    798.71603   -7036363.7            0   -6824923.9    51514.547 
    9850    797.84964   -7036132.8            0   -6824922.4    51548.365 
    9900    797.71816   -7036098.4            0   -6824922.7    51561.182 
    9950     798.0102   -7036176.5            0   -6824923.5    51545.095 
   10000    797.65995   -7036081.7            0   -6824921.5     51567.83 
Loop time of 1070.88 on 8 procs for 10000 steps with 2048000 atoms

Performance: 4.034 ns/day, 5.949 hours/ns, 9.338 timesteps/s
99.6% CPU use with 8 MPI tasks x 1 OpenMP threads

MPI task timing breakdown:
Section |  min time  |  avg time  |  max time  |%varavg| %total
---------------------------------------------------------------
Pair    | 867.34     | 870.67     | 875.16     |   8.6 | 81.30
Neigh   | 92.616     | 93.307     | 95.195     |   9.4 |  8.71
Comm    | 56.324     | 59.972     | 63.298     |  29.1 |  5.60
Output  | 0.15582    | 0.16308    | 0.17008    |   1.0 |  0.02
Modify  | 32.599     | 33.514     | 34.556     |  12.3 |  3.13
Other   |            | 13.25      |            |       |  1.24

Nlocal:         256000 ave      256232 max      255779 min
Histogram: 2 0 0 0 2 0 3 0 0 1
Nghost:        73246.5 ave       73467 max       73016 min
Histogram: 1 0 0 3 0 2 0 0 0 2
Neighs:    9.66423e+06 ave 9.67764e+06 max 9.64477e+06 min
Histogram: 1 1 0 0 1 0 1 2 0 2

Total # of neighbors = 77313878
Ave neighs/atom = 37.750917
Neighbor list builds = 1668
Dangerous builds = 23
Total wall time: 0:17:51
Intel(R) VTune(TM) Profiler 2022.2.0 collection completed successfully. Use the "aps --report /home/ubuntu/lammps/bench/aps_result_20220703" command to generate textual and HTML reports for the profiling session.
