LAMMPS (7 Jan 2022)
  using 1 OpenMP thread(s) per MPI task
Lattice spacing in x,y,z = 3.615 3.615 3.615
Created orthogonal box = (0 0 0) to (289.2 289.2 289.2)
  2 by 4 by 4 MPI processor grid
Created 2048000 atoms
  using lattice units in orthogonal box = (0 0 0) to (289.2 289.2 289.2)
  create_atoms CPU = 0.016 seconds
Reading eam potential file Cu_u3.eam with DATE: 2007-06-11
----------------------------------------------------------
Using INTEL Package without Coprocessor.
Compiler: Intel Classic C++ 20.21.5 / Intel(R) C++ g++ 9.3 mode
SIMD compiler directives: Enabled
Precision: mixed
----------------------------------------------------------
Neighbor list info ...
  update every 1 steps, delay 5 steps, check yes
  max neighbors/atom: 2000, page size: 100000
  master list distance cutoff = 5.95
  ghost atom cutoff = 5.95
  binsize = 2.975, bins = 98 98 98
  1 neighbor lists, perpetual/occasional/extra = 1 0 0
  (1) pair eam/intel, perpetual
      attributes: half, newton on, intel
      pair build: half/bin/newton/intel
      stencil: half/bin/3d
      bin: intel
Setting up Verlet run ...
  Unit style    : metal
  Current step  : 0
  Time step     : 0.005
Per MPI rank memory allocation (min/avg/max) = 535.4 | 562.1 | 589.2 Mbytes
Step Temp E_pair E_mol TotEng Press 
       0         1600   -7249918.3            0   -6826358.9    18704.056 
      50    780.81541   -7031660.7            0   -6824959.7    52291.358 
     100    798.21782   -7036295.1            0   -6824987.2    51479.467 
     150    797.44762   -7036092.2            0   -6824988.1    51537.979 
     200    797.94537   -7036225.3            0   -6824989.5    51521.865 
     250     797.4791   -7036101.1            0   -6824988.7    51545.016 
     300    798.50348   -7036374.1            0   -6824990.6    51508.836 
     350    797.57296   -7036125.2            0     -6824988    51546.571 
     400    797.67077   -7036151.7            0   -6824988.6    51542.651 
     450    798.03775   -7036249.5            0   -6824989.2    51530.836 
     500    797.62523   -7036139.8            0   -6824988.8    51552.146 
     550    797.88016   -7036206.7            0   -6824988.2    51537.707 
     600    798.00961   -7036241.8            0     -6824989    51526.844 
     650    797.37433   -7036071.8            0   -6824987.2    51553.976 
     700    797.64804     -7036144            0     -6824987    51546.459 
     750    797.41669   -7036082.2            0   -6824986.3    51554.296 
     800    796.99566   -7035970.2            0   -6824985.8    51570.442 
     850    797.57993   -7036125.3            0   -6824986.2     51550.31 
     900    797.44296   -7036088.3            0   -6824985.5    51556.817 
     950    797.95642   -7036224.9            0   -6824986.2    51532.807 
    1000    797.30627   -7036050.4            0   -6824983.8    51568.235 
    1050    797.52312   -7036109.1            0     -6824985    51547.526 
    1100    797.22806   -7036029.2            0   -6824983.3    51564.828 
    1150    798.02582   -7036242.7            0   -6824985.6    51533.582 
    1200    798.03891   -7036244.6            0   -6824984.1    51539.708 
    1250     797.5106   -7036103.4            0   -6824982.7    51557.039 
    1300    797.81774   -7036185.2            0   -6824983.2    51541.539 
    1350    797.74773   -7036166.7            0   -6824983.2    51544.792 
    1400    797.46511   -7036090.8            0   -6824982.2    51560.887 
    1450    797.59155   -7036124.6            0   -6824982.4     51545.67 
    1500    797.97869   -7036227.5            0   -6824982.9    51538.983 
    1550    797.46157   -7036089.4            0   -6824981.7    51562.796 
    1600    797.57393   -7036118.3            0   -6824980.8    51554.841 
    1650    797.70209   -7036153.1            0   -6824981.7    51544.091 
    1700    796.93809     -7035949            0   -6824979.8    51575.315 
    1750     797.5096   -7036101.3            0   -6824980.8    51556.037 
    1800    798.19129   -7036282.7            0   -6824981.8    51525.131 
    1850    797.92267   -7036210.6            0   -6824980.8    51535.467 
    1900    798.32686   -7036318.1            0   -6824981.3    51524.856 
    1950    797.36804   -7036062.4            0   -6824979.4    51565.398 
    2000    797.91144   -7036205.4            0   -6824978.6    51537.974 
    2050     797.5202     -7036101            0   -6824977.7    51556.313 
    2100    797.64093     -7036132            0   -6824976.8    51550.511 
    2150    797.51853   -7036099.1            0   -6824976.3    51552.836 
    2200    797.78004   -7036168.8            0   -6824976.8    51542.888 
    2250    797.25757   -7036029.9            0   -6824976.2    51568.639 
    2300    797.99177   -7036224.7            0   -6824976.7      51535.4 
    2350     797.8604   -7036189.1            0   -6824975.8      51542.1 
    2400    797.83913   -7036183.8            0   -6824976.1    51541.352 
    2450    797.88471   -7036194.4            0   -6824974.7    51542.046 
    2500      797.273     -7036032            0   -6824974.2    51566.303 
    2550    797.46864   -7036083.4            0   -6824973.8    51558.993 
    2600    797.53179   -7036099.6            0   -6824973.3    51551.477 
    2650    798.12321   -7036257.8            0     -6824975    51528.694 
    2700    797.89516   -7036196.1            0   -6824973.6    51538.933 
    2750    797.54852   -7036103.8            0   -6824973.1    51558.966 
    2800      797.812   -7036174.3            0   -6824973.8    51546.668 
    2850    797.70043   -7036144.2            0   -6824973.2    51547.661 
    2900    797.27662   -7036030.2            0   -6824971.4    51567.208 
    2950     798.3411   -7036314.8            0   -6824974.2    51527.398 
    3000    797.95316     -7036211            0   -6824973.1    51536.599 
    3050    797.64851   -7036128.8            0   -6824971.6    51559.362 
    3100    797.89068   -7036193.2            0   -6824971.9    51544.757 
    3150    797.98425   -7036218.3            0   -6824972.2    51533.011 
    3200    797.68612   -7036137.9            0   -6824970.7    51551.472 
    3250    797.36126   -7036051.1            0   -6824969.9    51564.459 
    3300    798.32357   -7036306.4            0   -6824970.5    51528.194 
    3350    798.21259   -7036277.7            0   -6824971.1    51526.821 
    3400    797.58675   -7036110.2            0   -6824969.4    51555.195 
    3450    798.09042   -7036243.7            0   -6824969.5    51538.612 
    3500    797.28037   -7036028.2            0   -6824968.4    51571.226 
    3550    797.91541   -7036197.1            0   -6824969.2    51547.855 
    3600    797.56728   -7036104.6            0   -6824968.8    51556.638 
    3650    797.60704   -7036113.7            0   -6824967.5    51553.367 
    3700    797.79993   -7036164.2            0   -6824966.9    51554.333 
    3750    797.84354   -7036174.5            0   -6824965.7     51550.16 
    3800    798.36233   -7036313.1            0   -6824966.9    51527.512 
    3850    797.72213   -7036142.9            0   -6824966.2    51547.752 
    3900    797.88743   -7036185.8            0   -6824965.4    51540.663 
    3950    797.67904   -7036129.2            0   -6824963.9    51556.016 
    4000    797.50725   -7036084.1            0   -6824964.3     51564.63 
    4050    797.65328   -7036123.4            0     -6824965    51555.679 
    4100     797.3438   -7036039.6            0   -6824963.1    51566.571 
    4150    797.83127   -7036169.8            0   -6824964.2    51546.578 
    4200    798.29716   -7036293.8            0   -6824964.9     51523.31 
    4250    797.58346   -7036103.4            0   -6824963.4    51553.673 
    4300    797.89066   -7036184.3            0     -6824963      51543.4 
    4350    797.89829   -7036185.1            0   -6824961.8    51540.496 
    4400    797.83482     -7036168            0   -6824961.4    51543.838 
    4450    798.32325   -7036297.7            0   -6824961.9     51530.69 
    4500    797.71659   -7036135.6            0   -6824960.3     51547.62 
    4550    797.93205   -7036192.4            0   -6824960.2    51548.269 
    4600    798.00087   -7036211.3            0   -6824960.8    51539.649 
    4650    797.85618   -7036171.8            0   -6824959.6    51541.485 
    4700    797.85884   -7036171.8            0   -6824958.9    51548.008 
    4750     797.9921     -7036207            0   -6824958.9     51540.02 
    4800    797.49865   -7036074.9            0   -6824957.3    51559.364 
    4850    797.78419   -7036150.9            0   -6824957.8    51545.111 
    4900    798.03763   -7036218.4            0   -6824958.1    51538.803 
    4950    797.64164   -7036111.6            0   -6824956.2    51562.951 
    5000     798.0116   -7036210.4            0     -6824957    51536.708 
    5050    797.87554   -7036174.3            0     -6824957    51546.575 
    5100    797.55752   -7036089.7            0   -6824956.6     51564.07 
    5150    797.58477   -7036096.2            0   -6824955.9    51557.819 
    5200    797.86965   -7036172.6            0   -6824956.8    51548.875 
    5250    798.09353   -7036231.1            0   -6824956.1    51539.889 
    5300    797.42984   -7036053.9            0   -6824954.5    51567.993 
    5350    797.95446   -7036193.9            0   -6824955.7    51535.302 
    5400    797.23769   -7036002.2            0   -6824953.7    51572.377 
    5450     798.0918   -7036228.7            0   -6824954.2    51536.225 
    5500    797.30733   -7036019.4            0   -6824952.5    51572.394 
    5550    797.56539   -7036086.6            0   -6824951.4    51558.661 
    5600    797.09268   -7035960.4            0   -6824950.4    51582.965 
    5650    797.45897   -7036059.1            0   -6824952.1    51564.807 
    5700    797.74969   -7036135.8            0   -6824951.8    51554.507 
    5750    797.92553   -7036182.4            0   -6824951.8    51543.936 
    5800    797.67384   -7036115.2            0   -6824951.3    51558.827 
    5850    798.00162   -7036202.2            0   -6824951.5    51545.082 
    5900    797.98582   -7036197.4            0   -6824950.9    51547.818 
    5950    797.69583   -7036119.5            0   -6824949.7    51558.309 
    6000    797.64453   -7036105.6            0   -6824949.4    51555.113 
    6050    798.05395     -7036213            0   -6824948.5    51546.102 
    6100    798.00116   -7036200.1            0   -6824949.5    51547.607 
    6150    797.88693   -7036168.2            0   -6824947.9    51547.919 
    6200    797.80992   -7036147.7            0   -6824947.7    51550.726 
    6250    797.39411   -7036036.7            0   -6824946.9    51560.029 
    6300    798.27183   -7036270.1            0   -6824947.9    51534.144 
    6350    797.79533   -7036143.3            0   -6824947.2    51543.786 
    6400    798.13626     -7036232            0   -6824945.7    51536.199 
    6450    797.83188   -7036152.2            0   -6824946.5    51547.289 
    6500    798.33732   -7036285.7            0   -6824946.1    51531.952 
    6550    797.57355     -7036081            0   -6824943.6    51560.491 
    6600    797.66669   -7036106.3            0   -6824944.3    51553.768 
    6650    798.32444   -7036281.2            0   -6824945.1    51528.227 
    6700    797.55609   -7036075.2            0   -6824942.4    51568.186 
    6750    797.68819   -7036109.5            0   -6824941.8    51562.193 
    6800    798.15575   -7036235.6            0   -6824944.1    51531.067 
    6850    797.63267   -7036095.1            0   -6824942.1    51557.159 
    6900    797.99242   -7036190.8            0   -6824942.6    51542.598 
    6950    797.77327   -7036130.9            0   -6824940.7    51554.661 
    7000    797.42692   -7036039.6            0     -6824941    51569.943 
    7050    797.49351   -7036057.8            0   -6824941.6    51564.754 
    7100    798.10931   -7036219.4            0   -6824940.2    51539.079 
    7150    797.67259   -7036103.3            0   -6824939.7    51552.465 
    7200    798.07256   -7036209.9            0   -6824940.4    51545.638 
    7250    797.87072   -7036156.6            0   -6824940.5    51550.095 
    7300    797.69248     -7036107            0   -6824938.2    51556.452 
    7350    797.63187   -7036090.4            0   -6824937.6    51558.178 
    7400    797.69237   -7036106.1            0   -6824937.3    51553.903 
    7450    797.95722   -7036174.9            0     -6824936    51546.309 
    7500    798.44847   -7036306.8            0   -6824937.8    51523.908 
    7550    797.19641   -7035972.8            0   -6824935.2    51582.097 
    7600    797.58548   -7036076.4            0   -6824935.9    51562.067 
    7650    798.26962     -7036258            0   -6824936.4    51538.488 
    7700    797.87628   -7036153.5            0     -6824936    51542.882 
    7750     798.0419   -7036196.8            0   -6824935.5    51545.792 
    7800     797.7016   -7036106.7            0   -6824935.5    51546.283 
    7850    797.78371   -7036127.8            0   -6824934.8    51557.003 
    7900    798.12735   -7036218.8            0   -6824934.8    51543.338 
    7950    798.32059   -7036270.5            0   -6824935.4    51537.028 
    8000    798.30934   -7036266.5            0   -6824934.4    51538.785 
    8050     798.0134   -7036186.8            0     -6824933    51539.865 
    8100    797.68613   -7036100.1            0   -6824932.9    51558.211 
    8150    797.65794     -7036093            0   -6824933.3    51558.795 
    8200    797.85965   -7036145.5            0   -6824932.4    51546.663 
    8250    798.07669   -7036202.9            0   -6824932.4    51540.312 
    8300    798.37198   -7036281.7            0     -6824933    51531.205 
    8350    797.65751   -7036090.9            0   -6824931.3    51562.983 
    8400     798.4079   -7036290.4            0   -6824932.1    51529.852 
    8450    797.56034   -7036063.8            0     -6824930     51567.27 
    8500    798.17078   -7036227.3            0   -6824931.8    51538.876 
    8550    798.29546   -7036260.6            0   -6824932.1    51530.899 
    8600     797.8023   -7036127.6            0   -6824929.6    51558.238 
    8650    798.02925   -7036188.2            0   -6824930.2    51544.968 
    8700    798.25454   -7036247.5            0   -6824929.9    51541.091 
    8750    797.61792   -7036077.3            0   -6824928.1    51557.711 
    8800    797.99533   -7036178.4            0   -6824929.3    51549.925 
    8850    798.12597   -7036212.1            0   -6824928.5    51540.225 
    8900    798.07342   -7036196.2            0   -6824926.5    51549.728 
    8950     797.7325   -7036106.5            0     -6824927     51563.16 
    9000    797.76038   -7036112.5            0   -6824925.7    51559.447 
    9050    798.12354   -7036209.6            0   -6824926.6    51539.224 
    9100    797.94483   -7036163.2            0   -6824927.6    51538.646 
    9150    797.93179   -7036158.7            0   -6824926.5     51548.42 
    9200    797.99449   -7036173.9            0   -6824925.1     51551.95 
    9250    798.04637   -7036187.5            0   -6824924.9    51551.052 
    9300    797.85602   -7036135.5            0   -6824923.3     51544.65 
    9350    797.66507   -7036084.4            0   -6824922.8    51557.657 
    9400    797.82527   -7036127.3            0   -6824923.3    51551.883 
    9450    797.97807   -7036168.1            0   -6824923.6    51548.577 
    9500    798.03787   -7036184.6            0   -6824924.3    51543.877 
    9550    797.87334   -7036139.9            0   -6824923.2      51552.7 
    9600    797.92311   -7036152.1            0   -6824922.2    51548.935 
    9650    798.14448   -7036211.2            0   -6824922.7    51536.249 
    9700    797.61193     -7036068            0   -6824920.5    51560.125 
    9750    797.98014   -7036165.4            0   -6824920.4    51551.983 
    9800    798.01425     -7036175            0     -6824921     51546.64 
    9850    797.41734   -7036014.7            0   -6824918.6    51581.085 
    9900    797.57523     -7036057            0   -6824919.2     51559.91 
    9950    797.30004   -7035983.3            0   -6824918.4    51573.594 
   10000    797.81806   -7036121.6            0   -6824919.5    51549.839 
Loop time of 296.767 on 32 procs for 10000 steps with 2048000 atoms

Performance: 14.557 ns/day, 1.649 hours/ns, 33.696 timesteps/s
99.4% CPU use with 32 MPI tasks x 1 OpenMP threads

MPI task timing breakdown:
Section |  min time  |  avg time  |  max time  |%varavg| %total
---------------------------------------------------------------
Pair    | 226.96     | 228.67     | 230.7      |   6.0 | 77.05
Neigh   | 24.915     | 25.284     | 25.967     |   7.0 |  8.52
Comm    | 19.631     | 21.697     | 23.318     |  22.2 |  7.31
Output  | 0.065444   | 0.073589   | 0.089911   |   2.2 |  0.02
Modify  | 14.798     | 15.354     | 16.027     |   9.2 |  5.17
Other   |            | 5.688      |            |       |  1.92

Nlocal:          64000 ave       64153 max       63746 min
Histogram: 1 0 2 2 5 3 6 4 7 2
Nghost:        32088.8 ave       32344 max       31934 min
Histogram: 2 7 4 6 2 6 2 2 0 1
Neighs:    2.41606e+06 ave 2.43071e+06 max  2.3987e+06 min
Histogram: 2 4 0 2 4 6 4 5 3 2

Total # of neighbors = 77313885
Ave neighs/atom = 37.75092
Neighbor list builds = 1668
Dangerous builds = 26
Total wall time: 0:04:56
Intel(R) VTune(TM) Profiler 2022.2.0 collection completed successfully. Use the "aps --report /home/ubuntu/lammps/bench/aps_result_20220703" command to generate textual and HTML reports for the profiling session.
