LAMMPS (7 Jan 2022)
  using 1 OpenMP thread(s) per MPI task
Lattice spacing in x,y,z = 3.615 3.615 3.615
Created orthogonal box = (0 0 0) to (72.3 72.3 72.3)
  2 by 2 by 4 MPI processor grid
Created 32000 atoms
  using lattice units in orthogonal box = (0 0 0) to (72.3 72.3 72.3)
  create_atoms CPU = 0.108 seconds
Reading eam potential file Cu_u3.eam with DATE: 2007-06-11
----------------------------------------------------------
Using INTEL Package without Coprocessor.
Compiler: Intel Classic C++ 20.21.5 / Intel(R) C++ g++ 9.3 mode
SIMD compiler directives: Enabled
Precision: single
----------------------------------------------------------
Neighbor list info ...
  update every 1 steps, delay 5 steps, check yes
  max neighbors/atom: 2000, page size: 100000
  master list distance cutoff = 5.95
  ghost atom cutoff = 5.95
  binsize = 2.975, bins = 25 25 25
  1 neighbor lists, perpetual/occasional/extra = 1 0 0
  (1) pair eam/intel, perpetual
      attributes: half, newton on, intel
      pair build: half/bin/newton/intel
      stencil: half/bin/3d
      bin: intel
Setting up Verlet run ...
  Unit style    : metal
  Current step  : 0
  Time step     : 0.005
Per MPI rank memory allocation (min/avg/max) = 18.9 | 20.59 | 22.26 Mbytes
Step Temp E_pair E_mol TotEng Press 
       0         1600   -113278.65            0   -106660.74    18703.492 
      50    781.69064   -109873.32            0   -106640.09    52273.061 
     100    801.83208   -109957.29            0   -106640.75    51322.804 
Loop time of 1.88499 on 16 procs for 100 steps with 32000 atoms

Performance: 22.918 ns/day, 1.047 hours/ns, 53.051 timesteps/s
69.2% CPU use with 16 MPI tasks x 1 OpenMP threads

MPI task timing breakdown:
Section |  min time  |  avg time  |  max time  |%varavg| %total
---------------------------------------------------------------
Pair    | 0.79915    | 0.95452    | 1.0296     |   9.0 | 50.64
Neigh   | 0.0067267  | 0.009021   | 0.022732   |   3.8 |  0.48
Comm    | 0.69791    | 0.73981    | 0.82661    |   6.0 | 39.25
Output  | 5.3931e-05 | 6.0808e-05 | 8.2709e-05 |   0.0 |  0.00
Modify  | 0.0012661  | 0.0014677  | 0.0015592  |   0.3 |  0.08
Other   |            | 0.1801     |            |       |  9.55

Nlocal:           2000 ave        2032 max        1967 min
Histogram: 1 1 2 1 4 1 1 3 0 2
Nghost:         4195.5 ave        4229 max        4164 min
Histogram: 2 0 3 1 1 2 3 2 1 1
Neighs:        75486.4 ave       76891 max       74215 min
Histogram: 3 1 0 3 2 1 2 2 1 1

Total # of neighbors = 1207783
Ave neighs/atom = 37.743219
Neighbor list builds = 13
Dangerous builds = 0
Total wall time: 0:00:02
Intel(R) VTune(TM) Profiler 2022.2.0 collection completed successfully. Use the "aps --report /home/ubuntu/lammps/bench/aps_result_20220531" command to generate textual and HTML reports for the profiling session.
