LAMMPS (7 Jan 2022)
  using 1 OpenMP thread(s) per MPI task
Lattice spacing in x,y,z = 3.615 3.615 3.615
Created orthogonal box = (0 0 0) to (216.9 216.9 216.9)
  2 by 2 by 4 MPI processor grid
Created 864000 atoms
  using lattice units in orthogonal box = (0 0 0) to (216.9 216.9 216.9)
  create_atoms CPU = 0.015 seconds
Reading eam potential file Cu_u3.eam with DATE: 2007-06-11
----------------------------------------------------------
Using INTEL Package without Coprocessor.
Compiler: Intel Classic C++ 20.21.5 / Intel(R) C++ g++ 9.3 mode
SIMD compiler directives: Enabled
Precision: mixed
----------------------------------------------------------
Neighbor list info ...
  update every 1 steps, delay 5 steps, check yes
  max neighbors/atom: 2000, page size: 100000
  master list distance cutoff = 5.95
  ghost atom cutoff = 5.95
  binsize = 2.975, bins = 73 73 73
  1 neighbor lists, perpetual/occasional/extra = 1 0 0
  (1) pair eam/intel, perpetual
      attributes: half, newton on, intel
      pair build: half/bin/newton/intel
      stencil: half/bin/3d
      bin: intel
Setting up Verlet run ...
  Unit style    : metal
  Current step  : 0
  Time step     : 0.005
Per MPI rank memory allocation (min/avg/max) = 477.1 | 477.1 | 477.1 Mbytes
Step Temp E_pair E_mol TotEng Press 
       0         1600   -3058559.2            0   -2879870.1    18704.286 
      50    780.51281   -2966447.5            0   -2879279.4    52309.312 
     100    798.57088   -2968476.9            0     -2879292    51460.463 
     150    796.91967   -2968292.3            0   -2879291.8    51559.447 
     200    797.22389   -2968326.7            0   -2879292.2    51553.427 
     250    797.26175   -2968330.9            0   -2879292.2     51553.18 
     300    797.92838   -2968405.3            0   -2879292.2    51531.603 
     350    797.55218     -2968363            0   -2879291.9    51545.486 
     400    798.29706   -2968447.6            0   -2879293.3    51519.142 
     450    798.23988   -2968440.9            0     -2879293    51516.963 
     500    797.75693   -2968385.4            0   -2879291.4     51542.93 
     550    796.85188   -2968284.1            0   -2879291.2    51587.726 
     600    798.25528   -2968441.3            0   -2879291.7    51515.164 
     650    797.35746   -2968339.7            0   -2879290.3    51552.108 
     700    797.40751   -2968345.7            0   -2879290.7    51554.476 
     750    797.52554   -2968359.2            0   -2879291.1    51546.872 
     800    798.06525   -2968419.5            0   -2879291.1    51533.138 
     850    797.30363   -2968333.9            0   -2879290.5    51570.654 
     900    797.46735   -2968353.1            0   -2879291.5    51541.401 
     950     798.0383   -2968416.3            0   -2879290.8    51527.469 
    1000    797.33769   -2968336.9            0   -2879289.7    51562.291 
    1050    797.88791   -2968398.1            0   -2879289.5    51536.095 
    1100    797.09309   -2968308.4            0   -2879288.5    51573.058 
    1150    797.58969   -2968365.1            0   -2879289.8    51557.316 
    1200    796.61259   -2968255.2            0     -2879289    51586.035 
    1250    797.72347   -2968379.3            0     -2879289    51545.246 
    1300    796.91212   -2968288.3            0   -2879288.6    51582.797 
    1350    798.40506   -2968456.2            0   -2879289.8    51520.423 
    1400    797.82743   -2968392.1            0   -2879290.2    51546.704 
    1450    797.74088   -2968380.4            0   -2879288.2    51553.169 
    1500    797.04024   -2968301.5            0   -2879287.5    51586.025 
    1550     798.0588   -2968416.8            0   -2879289.1    51529.318 
    1600    798.54326   -2968470.7            0   -2879288.9    51510.111 
    1650    797.90729   -2968398.7            0   -2879287.9    51548.207 
    1700      797.204   -2968320.1            0   -2879287.9    51571.569 
    1750    797.96803   -2968405.9            0   -2879288.3    51540.875 
    1800     797.8838   -2968395.8            0   -2879287.6    51543.215 
    1850    797.04748   -2968301.3            0   -2879286.6      51574.6 
    1900    798.28768   -2968440.5            0   -2879287.2    51527.675 
    1950    798.47959   -2968462.5            0   -2879287.8    51519.479 
    2000    797.47044   -2968348.8            0   -2879286.8    51559.421 
    2050    798.39879     -2968453            0   -2879287.3    51512.735 
    2100    797.48723   -2968349.5            0   -2879285.7      51554.6 
    2150    798.37551   -2968450.1            0     -2879287    51512.579 
    2200    797.07023   -2968302.7            0   -2879285.4    51576.469 
    2250     798.1886   -2968428.7            0   -2879286.5    51528.579 
    2300    797.70414   -2968374.6            0   -2879286.5    51554.643 
    2350    797.69815   -2968373.6            0   -2879286.2    51552.961 
    2400    797.67187   -2968370.7            0   -2879286.2    51555.312 
    2450     796.9141   -2968284.7            0   -2879284.9    51579.126 
    2500    796.78441   -2968269.6            0   -2879284.2    51581.923 
    2550      798.195   -2968428.4            0   -2879285.5    51522.935 
    2600    797.46843   -2968346.6            0   -2879284.8     51561.84 
    2650    797.41776   -2968340.6            0   -2879284.4    51560.074 
    2700    798.08315   -2968415.4            0     -2879285    51530.197 
    2750    798.25882   -2968434.9            0   -2879284.8     51527.46 
    2800    797.64589   -2968365.5            0   -2879283.9    51557.191 
    2850    797.08399   -2968302.6            0   -2879283.7     51570.18 
    2900    797.59955   -2968361.2            0   -2879284.8      51549.5 
    2950    797.60432   -2968361.3            0   -2879284.4    51550.478 
    3000     797.1548   -2968310.6            0   -2879283.9    51580.215 
    3050     798.0781   -2968413.6            0   -2879283.7    51532.215 
    3100    797.00158   -2968292.7            0   -2879283.1    51574.159 
    3150    797.73365   -2968374.5            0   -2879283.1    51551.108 
    3200    796.70693   -2968259.2            0   -2879282.5    51586.843 
    3250     796.4347   -2968228.3            0   -2879281.9    51601.835 
    3300    797.85958   -2968388.7            0   -2879283.2    51537.347 
    3350    798.03483   -2968407.8            0   -2879282.8     51540.71 
    3400    798.81775   -2968496.7            0   -2879284.2    51498.678 
    3450    797.79201   -2968381.2            0   -2879283.3    51546.787 
    3500    797.19089   -2968313.8            0     -2879283    51570.049 
    3550    798.87551   -2968502.8            0   -2879283.9    51507.033 
    3600    797.15452   -2968308.6            0   -2879281.8    51571.284 
    3650    797.85617   -2968386.9            0   -2879281.8    51542.627 
    3700    799.12208   -2968529.7            0   -2879283.3    51501.759 
    3750    796.95971   -2968286.6            0   -2879281.6    51583.509 
    3800    797.60656   -2968359.4            0   -2879282.2    51553.434 
    3850    797.49832   -2968347.4            0   -2879282.2    51561.763 
    3900    798.35785   -2968443.2            0   -2879282.1    51521.792 
    3950    798.24788   -2968430.9            0     -2879282    51528.985 
    4000    799.33744   -2968553.2            0   -2879282.7    51485.777 
    4050    797.48148     -2968344            0   -2879280.7    51565.399 
    4100    798.09953   -2968413.7            0   -2879281.5    51535.713 
    4150    797.94955   -2968397.3            0   -2879281.8    51537.476 
    4200    797.17987   -2968309.9            0   -2879280.4    51575.544 
    4250    797.88126   -2968388.5            0   -2879280.7    51537.881 
    4300    798.53644   -2968461.7            0   -2879280.7    51517.193 
    4350    797.46495   -2968342.1            0   -2879280.7    51556.266 
    4400    797.03236   -2968292.9            0   -2879279.8    51583.336 
    4450    797.21746   -2968313.2            0   -2879279.5     51578.14 
    4500    798.15809   -2968418.4            0   -2879279.6    51536.427 
    4550    798.10029   -2968411.9            0   -2879279.5    51529.395 
    4600    798.03813   -2968405.5            0   -2879280.1    51538.563 
    4650    797.46736   -2968340.8            0   -2879279.2     51560.42 
    4700    797.84577   -2968383.6            0   -2879279.7    51542.555 
    4750    798.08609   -2968409.8            0   -2879279.1    51537.243 
    4800    797.47827   -2968341.4            0   -2879278.5    51564.161 
    4850    797.51628   -2968345.5            0   -2879278.4    51556.032 
    4900    797.93112   -2968391.6            0   -2879278.1    51540.898 
    4950    796.91256   -2968277.5            0   -2879277.8    51578.344 
    5000     798.3901   -2968443.4            0   -2879278.7     51523.12 
    5050    798.41127   -2968444.8            0   -2879277.7     51526.04 
    5100    798.07727   -2968407.2            0   -2879277.4    51536.828 
    5150    798.86568   -2968496.2            0   -2879278.4    51496.181 
    5200    797.96721   -2968394.7            0   -2879277.2    51538.884 
    5250    796.95723   -2968280.2            0   -2879275.5    51581.076 
    5300    797.08314   -2968294.1            0   -2879275.4    51569.909 
    5350    797.80755   -2968375.7            0     -2879276    51548.848 
    5400     798.1246   -2968412.2            0   -2879277.1    51537.353 
    5450    798.48413   -2968451.5            0   -2879276.2    51516.492 
    5500     798.1927   -2968418.6            0   -2879275.9    51534.625 
    5550    798.88174   -2968496.1            0   -2879276.5     51500.55 
    5600    797.86115   -2968380.8            0   -2879275.1     51542.29 
    5650     797.3424   -2968322.8            0   -2879275.1    51566.109 
    5700    798.59399   -2968462.9            0   -2879275.4    51513.974 
    5750    798.01787   -2968398.5            0   -2879275.4    51541.429 
    5800    797.83268   -2968377.2            0   -2879274.7    51552.245 
    5850    798.92288     -2968500            0   -2879275.8    51505.997 
    5900     797.5602   -2968346.4            0   -2879274.4    51560.263 
    5950    798.73931     -2968479            0   -2879275.3    51514.492 
    6000    797.40049   -2968327.7            0   -2879273.5    51566.935 
    6050    798.05245   -2968400.8            0   -2879273.8    51551.494 
    6100    797.53045   -2968342.2            0   -2879273.5    51566.267 
    6150     797.9669   -2968391.3            0   -2879273.8     51544.68 
    6200    797.89243   -2968383.2            0     -2879274    51547.059 
    6250    798.35125   -2968434.6            0   -2879274.2    51528.217 
    6300    798.52687   -2968453.8            0   -2879273.9    51527.838 
    6350    797.67512   -2968358.8            0     -2879274    51555.142 
    6400    799.65013   -2968579.9            0   -2879274.5     51477.13 
    6450    798.09078   -2968404.7            0   -2879273.4    51533.471 
    6500    797.01907   -2968283.7            0   -2879272.1    51582.611 
    6550    797.56422   -2968344.5            0     -2879272    51558.691 
    6600    796.91076   -2968271.6            0   -2879272.1    51578.409 
    6650    798.10995   -2968406.3            0   -2879272.9    51535.101 
    6700    798.38378     -2968437            0   -2879272.9    51524.495 
    6750    797.44039   -2968330.2            0   -2879271.5    51566.101 
    6800    797.23834     -2968307            0   -2879270.9    51567.668 
    6850    798.04638   -2968398.2            0   -2879271.9    51533.261 
    6900    798.23531   -2968418.5            0   -2879271.1    51534.097 
    6950    798.09231   -2968403.1            0   -2879271.6    51526.882 
    7000    798.40214   -2968437.2            0   -2879271.1    51526.492 
    7050    797.47609   -2968333.8            0   -2879271.1    51556.231 
    7100    798.00917   -2968392.9            0   -2879270.7    51545.361 
    7150    797.34447   -2968317.8            0   -2879269.9    51573.797 
    7200    797.68071   -2968355.5            0     -2879270    51556.333 
    7250    798.15233   -2968408.8            0   -2879270.7    51540.175 
    7300     798.4185   -2968438.5            0   -2879270.6    51529.231 
    7350    797.70736   -2968358.7            0   -2879270.3    51556.277 
    7400    796.71829   -2968247.1            0   -2879269.1    51596.791 
    7450    798.03338   -2968394.4            0   -2879269.5    51542.131 
    7500    798.56343   -2968454.6            0   -2879270.5    51517.223 
    7550    798.89252   -2968491.3            0   -2879270.5    51517.138 
    7600    797.75402   -2968362.7            0     -2879269    51555.335 
    7650    797.37004   -2968319.9            0   -2879269.1    51569.379 
    7700    797.20546   -2968300.7            0   -2879268.3    51582.383 
    7750    798.77038   -2968476.9            0   -2879269.7    51508.587 
    7800    798.40512   -2968436.1            0   -2879269.7    51526.153 
    7850    798.16807   -2968409.5            0   -2879269.6    51528.868 
    7900    797.44273   -2968328.2            0   -2879269.3    51570.793 
    7950    797.68523   -2968355.2            0   -2879269.2    51555.151 
    8000    797.82217   -2968370.5            0   -2879269.2    51549.455 
    8050    797.43985   -2968327.7            0   -2879269.1    51570.437 
    8100    797.88673   -2968377.2            0   -2879268.7    51553.673 
    8150    798.34425   -2968429.3            0   -2879269.7    51519.043 
    8200    797.74874   -2968361.6            0   -2879268.5     51558.65 
    8250    798.08277   -2968399.2            0   -2879268.8      51540.5 
    8300    798.22164     -2968414            0   -2879268.1    51530.961 
    8350    797.31238   -2968311.7            0   -2879267.4    51569.237 
    8400    797.68938     -2968354            0   -2879267.6     51557.36 
    8450    797.91045   -2968378.1            0   -2879266.9    51541.439 
    8500    797.57341   -2968341.7            0   -2879268.2    51559.025 
    8550    797.60626   -2968343.8            0   -2879266.6    51550.287 
    8600    797.38966   -2968318.9            0   -2879265.9    51574.529 
    8650     798.3308   -2968425.4            0   -2879267.3    51537.869 
    8700    797.56321   -2968339.1            0   -2879266.8    51560.496 
    8750    798.90629   -2968490.5            0   -2879268.1    51505.951 
    8800    797.88183   -2968375.1            0   -2879267.1    51560.527 
    8850    797.79947   -2968365.9            0   -2879267.1    51557.585 
    8900    798.42042   -2968435.2            0   -2879267.1    51531.975 
    8950      797.741   -2968357.8            0   -2879265.6    51563.646 
    9000    798.24669   -2968414.6            0   -2879265.9    51541.184 
    9050    797.75682   -2968359.8            0   -2879265.9    51559.095 
    9100     798.0976   -2968399.3            0   -2879267.3    51544.499 
    9150    798.56444   -2968451.4            0   -2879267.2    51531.121 
    9200    798.77768   -2968474.8            0   -2879266.8    51531.973 
    9250    797.63405   -2968346.2            0   -2879265.9    51563.617 
    9300    797.19267   -2968296.4            0   -2879265.4    51575.065 
    9350     797.6766   -2968351.4            0   -2879266.4    51555.681 
    9400    797.02027   -2968276.5            0   -2879264.7    51583.514 
    9450    797.74031   -2968357.5            0   -2879265.3    51543.777 
    9500    797.55824   -2968337.1            0   -2879265.3    51566.812 
    9550    797.85297   -2968370.5            0   -2879265.7    51552.886 
    9600    797.89987   -2968375.4            0   -2879265.4    51552.979 
    9650    798.23225     -2968412            0   -2879264.9    51545.252 
    9700    797.44781   -2968324.4            0   -2879264.9    51566.485 
    9750    796.82034   -2968253.2            0   -2879263.8    51592.763 
    9800    797.55176   -2968335.6            0   -2879264.5    51559.945 
    9850    797.66229   -2968347.6            0   -2879264.2    51562.858 
    9900    797.75608   -2968357.4            0   -2879263.5    51564.048 
    9950    798.50845   -2968443.1            0   -2879265.2    51528.166 
   10000    797.59751   -2968339.8            0   -2879263.6    51565.079 
Loop time of 230.262 on 16 procs for 10000 steps with 864000 atoms

Performance: 18.761 ns/day, 1.279 hours/ns, 43.429 timesteps/s
99.6% CPU use with 16 MPI tasks x 1 OpenMP threads

MPI task timing breakdown:
Section |  min time  |  avg time  |  max time  |%varavg| %total
---------------------------------------------------------------
Pair    | 185.67     | 186.46     | 188.36     |   4.6 | 80.98
Neigh   | 20.332     | 20.5       | 21.044     |   5.1 |  8.90
Comm    | 11.186     | 12.535     | 13.423     |  15.8 |  5.44
Output  | 0.044673   | 0.048248   | 0.051683   |   0.9 |  0.02
Modify  | 7.3736     | 7.6674     | 7.9779     |   5.7 |  3.33
Other   |            | 3.052      |            |       |  1.33

Nlocal:          54000 ave       54136 max       53834 min
Histogram: 2 0 1 1 3 2 0 3 1 3
Nghost:        29044.2 ave       29211 max       28909 min
Histogram: 3 1 3 0 2 3 1 1 0 2
Neighs:    2.03868e+06 ave 2.04406e+06 max 2.03107e+06 min
Histogram: 2 0 1 1 3 2 0 1 3 3

Total # of neighbors = 32618878
Ave neighs/atom = 37.753331
Neighbor list builds = 1635
Dangerous builds = 12
Total wall time: 0:03:50
Intel(R) VTune(TM) Profiler 2022.2.0 collection completed successfully. Use the "aps --report /home/ubuntu/lammps/bench/aps_result_20220703" command to generate textual and HTML reports for the profiling session.
