LAMMPS (7 Jan 2022)
  using 1 OpenMP thread(s) per MPI task
Lattice spacing in x,y,z = 3.615 3.615 3.615
Created orthogonal box = (0 0 0) to (72.3 72.3 72.3)
  1 by 1 by 1 MPI processor grid
Created 32000 atoms
  using lattice units in orthogonal box = (0 0 0) to (72.3 72.3 72.3)
  create_atoms CPU = 0.010 seconds
Reading eam potential file Cu_u3.eam with DATE: 2007-06-11
----------------------------------------------------------
Using INTEL Package without Coprocessor.
Compiler: Intel Classic C++ 20.21.5 / Intel(R) C++ g++ 9.3 mode
SIMD compiler directives: Enabled
Precision: mixed
----------------------------------------------------------
Neighbor list info ...
  update every 1 steps, delay 5 steps, check yes
  max neighbors/atom: 2000, page size: 100000
  master list distance cutoff = 5.95
  ghost atom cutoff = 5.95
  binsize = 2.975, bins = 25 25 25
  1 neighbor lists, perpetual/occasional/extra = 1 0 0
  (1) pair eam/intel, perpetual
      attributes: half, newton on, intel
      pair build: half/bin/newton/intel
      stencil: half/bin/3d
      bin: intel
Setting up Verlet run ...
  Unit style    : metal
  Current step  : 0
  Time step     : 0.005
Per MPI rank memory allocation (min/avg/max) = 283.9 | 283.9 | 283.9 Mbytes
Step Temp E_pair E_mol TotEng Press 
       0         1600   -113279.97            0   -106662.06    18703.495 
      50    781.69065   -109873.35            0   -106640.12    52273.086 
     100    801.83202    -109957.3            0   -106640.76    51322.822 
     150     794.6766   -109927.53            0    -106640.6    51669.275 
     200    795.75165   -109932.04            0   -106640.66    51628.944 
     250     797.5836   -109939.57            0   -106640.61    51564.206 
     300    793.23381    -109921.5            0   -106640.53    51741.309 
     350    799.19405    -109946.3            0   -106640.68    51461.893 
     400    797.16388   -109937.82            0    -106640.6    51585.841 
     450    794.86189    -109928.1            0    -106640.4    51651.585 
     500    796.78037   -109936.18            0   -106640.54    51565.424 
     550    796.68631   -109935.87            0   -106640.62    51580.863 
     600    799.54567   -109947.76            0   -106640.68    51434.415 
     650    800.85558   -109953.16            0   -106640.66    51407.489 
     700    791.74221   -109915.13            0   -106640.33    51729.646 
     750    801.42633   -109955.58            0   -106640.73    51340.862 
     800    797.91072   -109940.73            0   -106640.41     51527.94 
     850    803.69593    -109964.9            0   -106640.65    51322.607 
     900    805.39596   -109971.99            0   -106640.72    51275.698 
     950     799.2251   -109946.21            0   -106640.46    51489.713 
    1000       796.31   -109933.91            0   -106640.21    51607.078 
    1050       793.64   -109922.92            0   -106640.27    51684.076 
    1100    800.65278   -109951.93            0   -106640.27     51463.05 
    1150    795.81132   -109931.95            0   -106640.32    51540.623 
    1200    798.41723   -109942.87            0   -106640.46    51466.155 
    1250    800.57979    -109951.7            0   -106640.35    51436.431 
    1300    796.83413   -109936.14            0   -106640.28    51582.676 
    1350    798.20314   -109942.02            0    -106640.5    51520.655 
    1400    801.36478   -109955.12            0   -106640.52    51420.872 
    1450     797.4442   -109938.66            0   -106640.27     51537.78 
    1500    795.05277   -109928.75            0   -106640.26     51651.46 
    1550    799.37169   -109946.75            0    -106640.4    51466.769 
    1600    794.19369   -109925.19            0   -106640.25    51708.613 
    1650     799.1717   -109945.97            0   -106640.44    51448.164 
    1700    799.77547   -109948.41            0   -106640.38    51446.233 
    1750    799.41623   -109947.01            0   -106640.47    51494.564 
    1800    798.84623   -109944.63            0   -106640.44    51461.488 
    1850    797.89193   -109940.56            0   -106640.32    51472.621 
    1900    799.92258   -109949.01            0   -106640.38    51428.268 
    1950    801.85977    -109957.1            0   -106640.45    51380.748 
    2000    794.76016   -109927.43            0   -106640.15    51606.914 
    2050    795.39516   -109930.12            0   -106640.21    51571.469 
    2100    800.07549    -109949.7            0   -106640.43    51401.105 
    2150      797.402   -109938.48            0   -106640.27    51543.945 
    2200    800.06644   -109949.59            0   -106640.36    51465.185 
    2250    801.08026   -109954.01            0   -106640.58    51355.388 
    2300    800.80726   -109952.72            0   -106640.43    51455.347 
    2350     799.4494   -109947.21            0   -106640.54    51487.627 
    2400    796.65897   -109935.57            0   -106640.43    51580.355 
    2450    800.72991   -109952.47            0   -106640.49    51438.839 
    2500    799.58037   -109947.58            0   -106640.36    51459.354 
    2550    797.47459   -109938.81            0   -106640.29    51547.434 
    2600    796.27894   -109934.02            0   -106640.45    51602.879 
    2650    793.64561    -109922.9            0   -106640.22    51753.154 
    2700    797.77633   -109940.18            0   -106640.42    51568.684 
    2750    797.23954   -109937.86            0   -106640.32    51587.296 
    2800    795.47603   -109930.37            0   -106640.13    51666.309 
    2850    796.97278    -109936.7            0   -106640.26    51572.642 
    2900    794.23896   -109925.45            0   -106640.33    51716.851 
    2950    797.07703   -109937.24            0   -106640.38    51480.203 
    3000    800.80059   -109952.68            0   -106640.42    51406.782 
    3050    799.95224   -109949.16            0    -106640.4    51413.109 
    3100     799.0583   -109945.35            0   -106640.29    51514.402 
    3150    794.75448   -109927.48            0   -106640.22    51664.054 
    3200    801.88305   -109957.19            0   -106640.45     51412.78 
    3250    794.65327   -109926.93            0   -106640.08    51737.906 
    3300    797.29529      -109938            0   -106640.24    51563.924 
    3350    801.83784   -109956.85            0   -106640.29    51401.494 
    3400     799.8994   -109948.88            0   -106640.34    51454.386 
    3450    798.19271   -109941.62            0   -106640.14    51570.073 
    3500    795.96277    -109932.4            0   -106640.15    51643.988 
    3550    801.57296   -109955.77            0   -106640.31    51387.599 
    3600    797.41333   -109938.43            0   -106640.17    51572.346 
    3650    802.06303   -109957.84            0   -106640.35     51343.44 
    3700    795.46693   -109930.39            0   -106640.18    51629.779 
    3750    794.54421   -109926.34            0   -106639.95    51697.787 
    3800    799.13466   -109945.66            0   -106640.28    51469.095 
    3850    791.64187   -109914.18            0    -106639.8    51856.037 
    3900    795.88512   -109932.16            0   -106640.22    51650.008 
    3950    794.13414   -109924.69            0   -106639.99    51706.708 
    4000    796.90429   -109936.32            0   -106640.17    51548.091 
    4050    801.07814   -109953.56            0   -106640.15    51418.987 
    4100     802.5432   -109959.71            0   -106640.24    51365.804 
    4150    799.15456   -109945.52            0   -106640.06    51555.865 
    4200      800.944   -109953.07            0   -106640.21    51422.343 
    4250    798.28248   -109941.89            0   -106640.04    51552.981 
    4300    799.92939   -109948.87            0    -106640.2    51515.269 
    4350    797.09806   -109937.08            0   -106640.13    51574.634 
    4400    792.87525   -109919.32            0   -106639.83    51789.717 
    4450     797.9617   -109940.49            0   -106639.96     51572.48 
    4500    797.63825   -109939.11            0   -106639.92    51586.262 
    4550    798.71599   -109943.67            0   -106640.03    51521.518 
    4600    793.22139   -109920.71            0   -106639.79    51742.051 
    4650    797.81049   -109939.71            0   -106639.81    51551.282 
    4700    794.44231   -109925.84            0   -106639.87    51684.766 
    4750    799.53262   -109947.03            0      -106640    51458.133 
    4800    796.06594   -109932.45            0   -106639.76    51624.785 
    4850    801.25783   -109954.12            0   -106639.97    51393.561 
    4900    795.42704    -109929.8            0   -106639.75    51597.438 
    4950    795.73184   -109931.09            0   -106639.78    51624.749 
    5000    793.18547   -109920.37            0    -106639.6    51735.499 
    5050    799.02928   -109944.69            0   -106639.75    51459.251 
    5100    803.27282   -109962.47            0   -106639.98    51332.014 
    5150     801.2965   -109954.07            0   -106639.75    51396.678 
    5200    795.07281    -109928.3            0   -106639.72    51624.331 
    5250    798.57105   -109942.75            0    -106639.7     51518.73 
    5300    799.95494   -109948.56            0   -106639.79    51432.174 
    5350    794.61155   -109926.31            0   -106639.65    51689.006 
    5400    798.19765   -109941.09            0   -106639.59    51520.749 
    5450    799.12855   -109945.04            0   -106639.69    51488.017 
    5500    794.98736   -109927.92            0    -106639.7    51626.269 
    5550    797.29801   -109937.42            0   -106639.64    51604.005 
    5600    800.29766   -109949.96            0   -106639.77    51494.808 
    5650    796.27181   -109933.21            0   -106639.68    51630.121 
    5700    795.94224   -109931.73            0   -106639.55     51623.38 
    5750    797.47474   -109938.01            0    -106639.5    51604.444 
    5800    800.25296    -109949.7            0   -106639.69    51484.439 
    5850    798.27431   -109941.57            0   -106639.76    51514.201 
    5900    794.91718   -109927.38            0   -106639.45     51673.63 
    5950    794.49139   -109925.74            0   -106639.56     51709.62 
    6000    796.14541   -109932.64            0   -106639.63    51616.355 
    6050    796.89583   -109935.68            0   -106639.57     51560.36 
    6100    797.76434   -109939.39            0   -106639.68    51530.769 
    6150     796.1472   -109932.66            0   -106639.64    51634.176 
    6200      800.081   -109949.03            0   -106639.74    51398.208 
    6250    800.37574   -109950.31            0    -106639.8    51462.744 
    6300     795.3678   -109929.26            0   -106639.46    51613.852 
    6350    799.04766   -109944.81            0   -106639.79    51473.499 
    6400    796.13903   -109932.73            0   -106639.75    51583.394 
    6450    799.02824   -109944.55            0   -106639.61    51474.877 
    6500    798.89304    -109944.2            0   -106639.82    51469.279 
    6550    799.10027   -109944.85            0   -106639.61    51516.409 
    6600    797.36185   -109937.68            0   -106639.63    51566.723 
    6650    798.54952   -109942.68            0   -106639.72    51498.257 
    6700    797.31168   -109937.48            0   -106639.64    51588.315 
    6750    798.59655   -109942.84            0   -106639.69    51528.804 
    6800    799.60287   -109947.05            0   -106639.74    51484.647 
    6850    795.61717   -109930.31            0   -106639.48    51648.058 
    6900     795.7735   -109931.01            0   -106639.53    51591.797 
    6950    796.54922   -109934.18            0    -106639.5    51577.006 
    7000    798.09651   -109940.72            0   -106639.64    51542.546 
    7050     798.4204   -109941.88            0   -106639.46    51561.854 
    7100    793.85464   -109922.92            0   -106639.38    51766.477 
    7150    797.50638   -109938.07            0   -106639.43    51629.536 
    7200    800.61203   -109951.04            0   -106639.55    51426.588 
    7250    796.75746   -109934.96            0   -106639.42    51597.834 
    7300    798.87664   -109943.74            0   -106639.43     51527.58 
    7350    795.91324   -109931.47            0   -106639.42    51668.801 
    7400    800.70769   -109951.45            0   -106639.57    51415.663 
    7450    798.81745   -109943.51            0   -106639.45    51497.327 
    7500     794.8795   -109927.01            0   -106639.23    51667.498 
    7550    796.85705   -109935.28            0   -106639.32    51585.515 
    7600    796.12027   -109932.21            0    -106639.3    51621.787 
    7650    800.12209   -109948.81            0   -106639.35    51421.338 
    7700    800.81341   -109951.81            0   -106639.49    51418.391 
    7750    794.09838   -109923.73            0   -106639.18    51694.104 
    7800    797.84271    -109939.3            0   -106639.27    51539.198 
    7850    798.98517   -109944.09            0   -106639.33    51511.696 
    7900    800.38043   -109950.01            0   -106639.48    51415.739 
    7950    798.55247   -109942.12            0   -106639.16    51501.277 
    8000    799.30297    -109945.4            0   -106639.33    51475.325 
    8050    795.68793   -109930.41            0   -106639.29    51633.226 
    8100    800.85962   -109951.81            0    -106639.3    51455.311 
    8150    797.47396   -109937.95            0   -106639.45    51532.308 
    8200    799.29248   -109945.42            0   -106639.39    51473.349 
    8250    797.85626   -109939.34            0   -106639.25    51572.135 
    8300    798.44667    -109941.9            0   -106639.37    51514.432 
    8350    798.97788   -109944.17            0   -106639.44    51446.022 
    8400    799.68884   -109947.08            0   -106639.41    51536.235 
    8450    798.34567   -109941.55            0   -106639.43    51585.788 
    8500    794.01935   -109923.49            0   -106639.27    51732.852 
    8550     796.6442   -109934.45            0   -106639.37    51596.961 
    8600    796.61642   -109934.29            0   -106639.33    51578.706 
    8650    795.99384   -109931.64            0   -106639.26    51623.517 
    8700    794.41107   -109925.13            0   -106639.29    51698.615 
    8750    797.98459   -109939.99            0   -106639.37    51596.047 
    8800    796.80067   -109934.89            0   -106639.17    51586.427 
    8850    798.21897   -109940.79            0    -106639.2    51532.518 
    8900    798.77319   -109943.19            0   -106639.31    51500.495 
    8950    795.71013   -109930.43            0   -106639.22    51669.699 
    9000    800.25907   -109949.37            0   -106639.34    51471.051 
    9050    795.02331   -109927.75            0   -106639.37    51625.621 
    9100    796.23392   -109932.77            0   -106639.39    51588.314 
    9150    801.04447   -109952.67            0    -106639.4    51421.353 
    9200    797.92657   -109939.57            0   -106639.19    51624.213 
    9250    797.57735    -109938.2            0   -106639.27    51589.424 
    9300    800.40977    -109950.2            0   -106639.55    51446.604 
    9350    798.49388   -109942.14            0   -106639.41    51554.959 
    9400    796.63802   -109934.33            0   -106639.28    51568.322 
    9450    794.86569    -109926.8            0   -106639.08    51701.749 
    9500    797.30971   -109937.08            0   -106639.25    51595.186 
    9550    798.73174   -109943.04            0   -106639.33    51494.779 
    9600    797.62066   -109938.42            0   -106639.31     51537.31 
    9650    796.44817   -109933.49            0   -106639.23    51612.573 
    9700    799.24527   -109945.09            0   -106639.25    51506.773 
    9750    800.96625    -109952.3            0   -106639.35    51460.411 
    9800    799.38204   -109945.75            0   -106639.35    51488.404 
    9850    799.49456    -109946.2            0   -106639.33    51489.159 
    9900    798.36925   -109941.59            0   -106639.37    51556.456 
    9950    796.35059   -109933.08            0   -106639.22    51597.424 
   10000     798.5604   -109942.42            0   -106639.41    51527.944 
Loop time of 120.388 on 1 procs for 10000 steps with 32000 atoms

Performance: 35.884 ns/day, 0.669 hours/ns, 83.065 timesteps/s
100.0% CPU use with 1 MPI tasks x 1 OpenMP threads

MPI task timing breakdown:
Section |  min time  |  avg time  |  max time  |%varavg| %total
---------------------------------------------------------------
Pair    | 103.92     | 103.92     | 103.92     |   0.0 | 86.32
Neigh   | 10.411     | 10.411     | 10.411     |   0.0 |  8.65
Comm    | 2.7074     | 2.7074     | 2.7074     |   0.0 |  2.25
Output  | 0.01222    | 0.01222    | 0.01222    |   0.0 |  0.01
Modify  | 2.2364     | 2.2364     | 2.2364     |   0.0 |  1.86
Other   |            | 1.102      |            |       |  0.92

Nlocal:          32000 ave       32000 max       32000 min
Histogram: 1 0 0 0 0 0 0 0 0 0
Nghost:          19909 ave       19909 max       19909 min
Histogram: 1 0 0 0 0 0 0 0 0 0
Neighs:    1.20799e+06 ave 1.20799e+06 max 1.20799e+06 min
Histogram: 1 0 0 0 0 0 0 0 0 0

Total # of neighbors = 1207990
Ave neighs/atom = 37.749688
Neighbor list builds = 1420
Dangerous builds = 1
Total wall time: 0:02:00
Intel(R) VTune(TM) Profiler 2022.2.0 collection completed successfully. Use the "aps --report /home/ubuntu/lammps/bench/aps_result_20220703" command to generate textual and HTML reports for the profiling session.
