LAMMPS (7 Jan 2022)
  using 1 OpenMP thread(s) per MPI task
Lattice spacing in x,y,z = 3.615 3.615 3.615
Created orthogonal box = (0 0 0) to (144.6 144.6 144.6)
  1 by 2 by 2 MPI processor grid
Created 256000 atoms
  using lattice units in orthogonal box = (0 0 0) to (144.6 144.6 144.6)
  create_atoms CPU = 0.029 seconds
Reading eam potential file Cu_u3.eam with DATE: 2007-06-11
----------------------------------------------------------
Using INTEL Package without Coprocessor.
Compiler: Intel Classic C++ 20.21.5 / Intel(R) C++ g++ 9.3 mode
SIMD compiler directives: Enabled
Precision: mixed
----------------------------------------------------------
Neighbor list info ...
  update every 1 steps, delay 5 steps, check yes
  max neighbors/atom: 2000, page size: 100000
  master list distance cutoff = 5.95
  ghost atom cutoff = 5.95
  binsize = 2.975, bins = 49 49 49
  1 neighbor lists, perpetual/occasional/extra = 1 0 0
  (1) pair eam/intel, perpetual
      attributes: half, newton on, intel
      pair build: half/bin/newton/intel
      stencil: half/bin/3d
      bin: intel
Setting up Verlet run ...
  Unit style    : metal
  Current step  : 0
  Time step     : 0.005
Per MPI rank memory allocation (min/avg/max) = 562.1 | 562.1 | 562.1 Mbytes
Step Temp E_pair E_mol TotEng Press 
       0         1600   -906239.72            0   -853294.98        18704 
      50     780.3702   -878942.74            0   -853119.92    52325.519 
     100    798.91517   -879560.78            0    -853124.3    51436.883 
Loop time of 5.14529 on 4 procs for 100 steps with 256000 atoms

Performance: 8.396 ns/day, 2.858 hours/ns, 19.435 timesteps/s
76.9% CPU use with 4 MPI tasks x 1 OpenMP threads

MPI task timing breakdown:
Section |  min time  |  avg time  |  max time  |%varavg| %total
---------------------------------------------------------------
Pair    | 3.2766     | 3.5293     | 4.2359     |  21.7 | 68.59
Neigh   | 0.23391    | 0.28695    | 0.44017    |  16.5 |  5.58
Comm    | 0.30351    | 1.2234     | 1.5518     |  48.0 | 23.78
Output  | 0.00035789 | 0.00038795 | 0.00040682 |   0.0 |  0.01
Modify  | 0.054806   | 0.073765   | 0.1224     |  10.4 |  1.43
Other   |            | 0.03148    |            |       |  0.61

Nlocal:          64000 ave       64140 max       63718 min
Histogram: 1 0 0 0 0 0 0 0 2 1
Nghost:        32088.8 ave       32369 max       31950 min
Histogram: 1 2 0 0 0 0 0 0 0 1
Neighs:    2.41455e+06 ave 2.42027e+06 max 2.40328e+06 min
Histogram: 1 0 0 0 0 0 0 1 1 1

Total # of neighbors = 9658197
Ave neighs/atom = 37.727332
Neighbor list builds = 15
Dangerous builds = 0
Total wall time: 0:00:05
Intel(R) VTune(TM) Profiler 2022.2.0 collection completed successfully. Use the "aps --report /home/ubuntu/lammps/bench/aps_result_20220526" command to generate textual and HTML reports for the profiling session.
