LAMMPS (7 Jan 2022)
  using 1 OpenMP thread(s) per MPI task
Lattice spacing in x,y,z = 3.615 3.615 3.615
Created orthogonal box = (0 0 0) to (216.9 216.9 216.9)
  1 by 2 by 2 MPI processor grid
Created 864000 atoms
  using lattice units in orthogonal box = (0 0 0) to (216.9 216.9 216.9)
  create_atoms CPU = 0.037 seconds
Reading eam potential file Cu_u3.eam with DATE: 2007-06-11
----------------------------------------------------------
Using INTEL Package without Coprocessor.
Compiler: Intel Classic C++ 20.21.5 / Intel(R) C++ g++ 9.3 mode
SIMD compiler directives: Enabled
Precision: mixed
----------------------------------------------------------
Neighbor list info ...
  update every 1 steps, delay 5 steps, check yes
  max neighbors/atom: 2000, page size: 100000
  master list distance cutoff = 5.95
  ghost atom cutoff = 5.95
  binsize = 2.975, bins = 73 73 73
  1 neighbor lists, perpetual/occasional/extra = 1 0 0
  (1) pair eam/intel, perpetual
      attributes: half, newton on, intel
      pair build: half/bin/newton/intel
      stencil: half/bin/3d
      bin: intel
Setting up Verlet run ...
  Unit style    : metal
  Current step  : 0
  Time step     : 0.005
Per MPI rank memory allocation (min/avg/max) = 1886 | 1886 | 1886 Mbytes
Step Temp E_pair E_mol TotEng Press 
       0         1600   -3058559.2            0   -2879870.1    18704.286 
      50    780.51283   -2966447.5            0   -2879279.4    52309.311 
     100    798.57095   -2968476.9            0     -2879292    51460.462 
     150    796.91968   -2968292.3            0   -2879291.8    51559.451 
     200    797.22392   -2968326.6            0   -2879292.2    51553.431 
     250    797.26181   -2968330.9            0   -2879292.2    51553.191 
     300    797.92865   -2968405.3            0   -2879292.1    51531.601 
     350    797.55202     -2968363            0   -2879291.9    51545.501 
     400    798.29734   -2968447.6            0   -2879293.3    51519.152 
     450    798.23983   -2968440.9            0     -2879293    51516.921 
     500    797.75578   -2968385.3            0   -2879291.4    51542.963 
     550    796.85155   -2968284.1            0   -2879291.3    51587.741 
     600    798.25575   -2968441.4            0   -2879291.7    51515.172 
     650     797.3574   -2968339.7            0   -2879290.4    51552.084 
     700    797.40927   -2968345.9            0   -2879290.7     51554.34 
     750    797.52757   -2968359.5            0   -2879291.1    51546.679 
     800    798.06393   -2968419.4            0   -2879291.2    51533.122 
     850    797.30588   -2968334.3            0   -2879290.6    51570.597 
     900    797.46372   -2968352.8            0   -2879291.6    51541.378 
     950    798.04197   -2968416.8            0     -2879291    51527.088 
    1000    797.33758     -2968337            0   -2879289.8    51562.361 
    1050    797.89813   -2968399.5            0   -2879289.7    51535.229 
    1100     797.0839   -2968307.5            0   -2879288.7     51573.59 
    1150    797.58676   -2968364.9            0   -2879289.9    51557.401 
    1200    796.60197   -2968254.2            0   -2879289.2    51586.158 
    1250    797.74533     -2968382            0   -2879289.3    51544.671 
    1300    796.87082   -2968283.9            0   -2879288.9    51584.324 
    1350    798.43795   -2968460.1            0   -2879290.1     51518.59 
    1400    797.76329   -2968384.7            0     -2879290     51549.25 
    1450    797.90336   -2968398.9            0   -2879288.5    51545.038 
    1500    796.97533   -2968294.2            0   -2879287.5    51587.213 
    1550    798.04255   -2968415.4            0   -2879289.5    51529.671 
    1600      798.615   -2968479.3            0   -2879289.5    51511.133 
    1650    798.10412   -2968421.7            0     -2879289    51536.517 
    1700    797.69489   -2968375.8            0   -2879288.8    51543.216 
    1750    797.55044   -2968359.2            0   -2879288.2    51558.072 
    1800    797.63255   -2968367.8            0   -2879287.7    51548.781 
    1850    796.79811   -2968273.2            0   -2879286.3    51583.072 
    1900    797.74292   -2968379.6            0   -2879287.2    51554.949 
    1950    797.19532   -2968318.5            0   -2879287.2    51566.718 
    2000     798.0362   -2968412.2            0     -2879287    51535.938 
    2050    797.57085   -2968360.6            0   -2879287.4    51551.419 
    2100    796.59545   -2968249.3            0     -2879285     51599.19 
    2150    798.10268   -2968419.1            0   -2879286.5    51528.432 
    2200      797.418   -2968342.2            0     -2879286    51571.566 
    2250    798.09044     -2968418            0   -2879286.7    51526.235 
    2300    797.19849   -2968316.9            0   -2879285.3    51573.796 
    2350    798.03117     -2968411            0   -2879286.4    51531.895 
    2400    797.57627   -2968359.6            0   -2879285.8    51543.045 
    2450    797.93341   -2968399.9            0   -2879286.2    51537.237 
    2500    797.05492   -2968301.4            0   -2879285.8     51569.22 
    2550    797.96368   -2968402.7            0   -2879285.6        51544 
    2600    797.37229   -2968335.6            0   -2879284.5     51564.86 
    2650    797.23598   -2968320.4            0   -2879284.6    51568.293 
    2700    797.68901   -2968372.2            0   -2879285.7    51549.837 
    2750    797.61075   -2968363.4            0   -2879285.7    51558.133 
    2800    797.87524   -2968392.1            0   -2879284.9    51540.015 
    2850    797.59963   -2968360.3            0   -2879283.9    51554.025 
    2900    797.41855     -2968340            0   -2879283.8    51569.431 
    2950     797.2649   -2968323.2            0   -2879284.2    51568.285 
    3000    797.57924   -2968358.1            0     -2879284    51550.062 
    3050    798.14857   -2968421.8            0     -2879284    51527.526 
    3100    798.11909   -2968419.1            0   -2879284.7    51529.896 
    3150    798.45146   -2968456.1            0   -2879284.5    51513.366 
    3200    798.00248   -2968404.9            0   -2879283.5    51533.827 
    3250    798.68136   -2968481.1            0   -2879283.8    51499.899 
    3300    797.58817   -2968358.1            0     -2879283    51551.833 
    3350    797.21551   -2968316.4            0   -2879282.9    51568.215 
    3400    797.88862   -2968391.4            0   -2879282.7    51536.349 
    3450    798.10257   -2968415.9            0   -2879283.3    51537.105 
    3500    798.23232   -2968430.5            0   -2879283.4    51532.595 
    3550    798.22747   -2968429.5            0     -2879283    51534.071 
    3600    798.19478   -2968425.6            0   -2879282.7    51524.755 
    3650    798.31183   -2968438.3            0   -2879282.3    51533.972 
    3700    797.08546   -2968300.2            0   -2879281.2    51573.116 
    3750    797.55159   -2968352.3            0   -2879281.3    51560.823 
    3800    797.43989   -2968340.5            0   -2879281.9    51559.464 
    3850    798.58622   -2968469.3            0   -2879282.7    51520.535 
    3900    798.40685   -2968448.8            0   -2879282.2    51523.787 
    3950    797.78217   -2968378.6            0   -2879281.8    51547.282 
    4000    798.57508   -2968467.5            0   -2879282.1    51516.225 
    4050    797.19639   -2968312.7            0   -2879281.3    51562.322 
    4100    796.46056   -2968229.7            0   -2879280.4    51605.345 
    4150    798.00107     -2968403            0   -2879281.7    51535.571 
    4200    797.79239   -2968379.1            0   -2879281.1    51555.131 
    4250    797.50319   -2968345.7            0     -2879280    51561.861 
    4300    798.57206   -2968466.3            0   -2879281.2    51509.495 
    4350    797.58453   -2968355.6            0   -2879280.8    51555.303 
    4400     798.1588   -2968420.1            0   -2879281.2    51531.278 
    4450    797.68451   -2968366.5            0   -2879280.6    51556.011 
    4500     797.5688   -2968353.8            0   -2879280.9    51548.549 
    4550    798.73494   -2968484.5            0   -2879281.3    51507.433 
    4600    797.61609   -2968358.4            0   -2879280.1    51557.838 
    4650    797.74154   -2968373.2            0     -2879281    51539.987 
    4700    797.90192   -2968390.4            0   -2879280.2    51542.345 
    4750    798.15499   -2968418.2            0   -2879279.7     51539.93 
    4800    797.62547   -2968358.6            0   -2879279.3    51550.311 
    4850    798.47981   -2968454.8            0     -2879280    51521.648 
    4900    798.74866   -2968485.3            0   -2879280.5    51509.755 
    4950    798.00443   -2968400.6            0     -2879279    51542.051 
    5000    797.91074   -2968389.9            0   -2879278.7    51532.478 
    5050     797.9083   -2968389.9            0     -2879279    51542.164 
    5100    797.28583   -2968319.3            0   -2879277.9    51573.598 
    5150    798.07555   -2968408.5            0     -2879279    51530.181 
    5200    798.09609   -2968410.5            0   -2879278.6    51539.654 
    5250    797.33911   -2968325.6            0   -2879278.2    51569.131 
    5300    798.72325   -2968480.6            0   -2879278.6    51509.168 
    5350     798.4813   -2968453.6            0   -2879278.7     51520.32 
    5400    798.45831   -2968450.9            0   -2879278.6    51527.772 
    5450    797.83959   -2968381.2            0   -2879277.9     51554.04 
    5500    796.65958   -2968248.2            0   -2879276.8    51594.754 
    5550    798.76337   -2968484.6            0   -2879278.2    51523.638 
    5600    797.61206   -2968355.2            0   -2879277.4    51560.604 
    5650    797.20088   -2968307.8            0   -2879275.9    51577.946 
    5700    798.24999   -2968426.3            0   -2879277.2    51535.157 
    5750    798.22955   -2968424.6            0   -2879277.8    51525.452 
    5800    797.36017   -2968326.3            0   -2879276.6    51568.981 
    5850    797.91057   -2968388.1            0   -2879276.9      51551.7 
    5900    797.84433   -2968380.7            0     -2879277     51549.56 
    5950    797.50985   -2968341.9            0   -2879275.5    51562.433 
    6000    797.55298   -2968346.9            0   -2879275.7    51557.619 
    6050     798.1243   -2968411.3            0   -2879276.2    51537.792 
    6100    797.65255   -2968357.8            0   -2879275.5    51544.043 
    6150    797.29169   -2968316.8            0   -2879274.8     51569.87 
    6200    798.03053   -2968399.9            0   -2879275.4    51530.075 
    6250    797.93004   -2968388.8            0   -2879275.4    51541.218 
    6300    798.22776   -2968422.7            0   -2879276.2    51529.358 
    6350    798.14169   -2968412.7            0   -2879275.7    51537.706 
    6400    796.16851   -2968190.4            0   -2879273.8    51618.852 
    6450    797.47178   -2968336.6            0   -2879274.5    51560.057 
    6500    797.38204   -2968326.3            0   -2879274.2    51569.677 
    6550    797.58648   -2968349.8            0   -2879274.9    51565.196 
    6600    796.32691   -2968207.6            0   -2879273.3    51610.772 
    6650    798.54976     -2968458            0   -2879275.5    51520.882 
    6700    797.71866   -2968363.6            0   -2879273.9     51554.46 
    6750    797.78032     -2968371            0   -2879274.4    51556.464 
    6800    798.64788   -2968467.9            0   -2879274.4    51524.227 
    6850    797.37322     -2968325            0   -2879273.8    51556.675 
    6900    797.54882   -2968344.4            0   -2879273.7    51554.329 
    6950    797.39803   -2968327.2            0   -2879273.3    51570.174 
    7000    797.67578   -2968359.1            0   -2879274.1    51547.208 
    7050    796.74135     -2968253            0   -2879272.4    51590.871 
    7100    797.74503   -2968365.8            0   -2879273.1     51559.32 
    7150    797.47935   -2968336.2            0   -2879273.2    51553.496 
    7200    798.67842   -2968470.8            0   -2879273.9    51513.353 
    7250    798.35633     -2968434            0   -2879273.1    51529.499 
    7300    798.51675   -2968451.8            0     -2879273     51528.53 
    7350    799.15546   -2968523.4            0   -2879273.2    51498.344 
    7400    798.01333   -2968395.2            0   -2879272.6    51544.219 
    7450    798.11447   -2968406.8            0   -2879272.9    51534.877 
    7500    798.24029   -2968420.8            0   -2879272.8     51532.03 
    7550    797.54234   -2968342.4            0   -2879272.4    51556.513 
    7600    797.24658     -2968309            0     -2879272      51572.7 
    7650    797.87934     -2968379            0   -2879271.4    51554.454 
    7700    797.53585   -2968340.8            0   -2879271.5    51566.955 
    7750    797.14295   -2968296.5            0   -2879271.1    51578.497 
    7800    797.85711   -2968377.2            0     -2879272    51542.374 
    7850    797.68922   -2968357.8            0   -2879271.3    51559.428 
    7900    798.33757   -2968430.6            0   -2879271.7    51522.392 
    7950    797.29197   -2968312.1            0     -2879270    51572.083 
    8000    797.64804   -2968352.3            0   -2879270.5    51550.596 
    8050    797.93046   -2968384.2            0   -2879270.8    51545.693 
    8100    798.40388   -2968437.8            0   -2879271.5    51527.904 
    8150    798.46095   -2968444.8            0   -2879272.2     51518.72 
    8200    797.67634   -2968355.2            0   -2879270.2    51556.947 
    8250     797.8632   -2968375.7            0   -2879269.8    51561.688 
    8300    797.29071   -2968311.8            0   -2879269.8    51580.176 
    8350    797.76581   -2968364.8            0   -2879269.8    51558.872 
    8400    797.35858   -2968318.9            0   -2879269.4    51570.156 
    8450    798.50361   -2968447.4            0     -2879270    51520.791 
    8500    798.14755   -2968407.4            0   -2879269.8    51540.329 
    8550    796.50043     -2968222            0   -2879268.3    51599.512 
    8600    797.99922   -2968389.4            0   -2879268.4     51542.17 
    8650    797.70464   -2968357.1            0   -2879268.9    51553.868 
    8700    798.50049   -2968445.9            0   -2879268.8    51536.308 
    8750    797.82289   -2968370.4            0     -2879269    51557.254 
    8800    797.51072     -2968335            0   -2879268.5    51568.503 
    8850    798.36808   -2968430.6            0   -2879268.4    51524.647 
    8900    797.62102   -2968346.8            0     -2879268    51563.246 
    8950    797.92924     -2968381            0   -2879267.8    51556.277 
    9000    797.64011   -2968348.6            0   -2879267.6    51558.385 
    9050    797.91729   -2968379.7            0   -2879267.8    51545.349 
    9100    797.85543   -2968372.7            0   -2879267.7    51544.541 
    9150    796.92806     -2968268            0   -2879266.6    51595.972 
    9200    798.28069   -2968420.2            0   -2879267.7    51538.447 
    9250    797.65185   -2968349.1            0   -2879266.8      51558.7 
    9300    797.51628     -2968333            0   -2879265.9    51570.726 
    9350    797.98676   -2968386.2            0   -2879266.5    51546.568 
    9400    798.27584     -2968418            0   -2879266.1    51542.472 
    9450     797.9576   -2968382.4            0     -2879266    51554.572 
    9500    797.91983   -2968377.8            0   -2879265.6    51548.361 
    9550    798.03271   -2968390.3            0   -2879265.5    51549.667 
    9600    798.22615   -2968412.4            0     -2879266    51540.562 
    9650     797.5533   -2968335.6            0   -2879264.4    51553.205 
    9700    797.18389   -2968294.6            0   -2879264.6    51584.504 
    9750    798.29086   -2968418.7            0   -2879265.1    51528.596 
    9800    797.11053   -2968285.7            0   -2879263.9    51577.222 
    9850    797.66571   -2968348.5            0   -2879264.7    51559.629 
    9900    798.13284   -2968400.5            0   -2879264.5    51549.254 
    9950    797.61643   -2968342.3            0     -2879264    51563.716 
   10000     797.9856   -2968383.1            0   -2879263.6    51543.966 
Loop time of 879.942 on 4 procs for 10000 steps with 864000 atoms

Performance: 4.909 ns/day, 4.889 hours/ns, 11.364 timesteps/s
99.7% CPU use with 4 MPI tasks x 1 OpenMP threads

MPI task timing breakdown:
Section |  min time  |  avg time  |  max time  |%varavg| %total
---------------------------------------------------------------
Pair    | 726.98     | 730.98     | 733.39     |   9.6 | 83.07
Neigh   | 78.281     | 78.728     | 79.35      |   4.4 |  8.95
Comm    | 33.428     | 37.121     | 42.189     |  52.7 |  4.22
Output  | 0.11204    | 0.11477    | 0.11825    |   0.7 |  0.01
Modify  | 23.054     | 23.741     | 24.419     |  13.8 |  2.70
Other   |            | 9.26       |            |       |  1.05

Nlocal:         216000 ave      216065 max      215864 min
Histogram: 1 0 0 0 0 0 0 1 0 2
Nghost:        69048.2 ave       69183 max       68985 min
Histogram: 2 0 1 0 0 0 0 0 0 1
Neighs:    8.15404e+06 ave 8.15746e+06 max 8.14782e+06 min
Histogram: 1 0 0 0 0 0 1 0 1 1

Total # of neighbors = 32616151
Ave neighs/atom = 37.750175
Neighbor list builds = 1637
Dangerous builds = 12
Total wall time: 0:14:40
Intel(R) VTune(TM) Profiler 2022.2.0 collection completed successfully. Use the "aps --report /home/ubuntu/lammps/bench/aps_result_20220703" command to generate textual and HTML reports for the profiling session.
