LAMMPS (7 Jan 2022)
  using 1 OpenMP thread(s) per MPI task
Lattice spacing in x,y,z = 3.615 3.615 3.615
Created orthogonal box = (0 0 0) to (216.9 216.9 216.9)
  1 by 1 by 2 MPI processor grid
Created 864000 atoms
  using lattice units in orthogonal box = (0 0 0) to (216.9 216.9 216.9)
  create_atoms CPU = 0.059 seconds
Reading eam potential file Cu_u3.eam with DATE: 2007-06-11
----------------------------------------------------------
Using INTEL Package without Coprocessor.
Compiler: Intel Classic C++ 20.21.5 / Intel(R) C++ g++ 9.3 mode
SIMD compiler directives: Enabled
Precision: mixed
----------------------------------------------------------
Neighbor list info ...
  update every 1 steps, delay 5 steps, check yes
  max neighbors/atom: 2000, page size: 100000
  master list distance cutoff = 5.95
  ghost atom cutoff = 5.95
  binsize = 2.975, bins = 73 73 73
  1 neighbor lists, perpetual/occasional/extra = 1 0 0
  (1) pair eam/intel, perpetual
      attributes: half, newton on, intel
      pair build: half/bin/newton/intel
      stencil: half/bin/3d
      bin: intel
Setting up Verlet run ...
  Unit style    : metal
  Current step  : 0
  Time step     : 0.005
Per MPI rank memory allocation (min/avg/max) = 3762 | 3762 | 3762 Mbytes
Step Temp E_pair E_mol TotEng Press 
       0         1600   -3058559.2            0   -2879870.1    18704.286 
      50    780.51283   -2966447.5            0   -2879279.4    52309.311 
     100     798.5709   -2968476.9            0     -2879292    51460.468 
     150    796.91967   -2968292.3            0   -2879291.8    51559.464 
     200    797.22381   -2968326.6            0   -2879292.2    51553.426 
     250     797.2618   -2968330.9            0   -2879292.2    51553.184 
     300    797.92846   -2968405.3            0   -2879292.2    51531.583 
     350    797.55196     -2968363            0   -2879291.9    51545.497 
     400    798.29728   -2968447.6            0   -2879293.2    51519.141 
     450    798.24008   -2968440.9            0     -2879293    51516.955 
     500     797.7567   -2968385.4            0   -2879291.4    51542.929 
     550    796.85175   -2968284.1            0   -2879291.2    51587.739 
     600    798.25443   -2968441.2            0   -2879291.6    51515.232 
     650    797.35714   -2968339.7            0   -2879290.3    51552.126 
     700    797.41019     -2968346            0   -2879290.7    51554.302 
     750    797.52498   -2968359.2            0   -2879291.1    51546.822 
     800    798.06169   -2968419.1            0   -2879291.1    51533.265 
     850    797.30543   -2968334.2            0   -2879290.6     51570.54 
     900     797.4642   -2968352.8            0   -2879291.5    51541.449 
     950    798.04389   -2968416.9            0   -2879290.9      51527.1 
    1000    797.33127   -2968336.2            0   -2879289.7     51562.64 
    1050    797.88947   -2968398.4            0   -2879289.6    51535.791 
    1100    797.10799   -2968310.1            0   -2879288.6    51573.016 
    1150    797.58258   -2968364.1            0   -2879289.6    51557.586 
    1200    796.60229   -2968253.9            0   -2879288.8     51586.63 
    1250    797.76536   -2968383.7            0   -2879288.8    51543.143 
    1300    796.85988   -2968282.1            0   -2879288.2    51584.564 
    1350    798.43315     -2968459            0   -2879289.4    51518.766 
    1400    797.75757   -2968383.8            0   -2879289.7    51548.866 
    1450    797.84776   -2968392.3            0   -2879288.2    51547.472 
    1500    797.02895   -2968300.2            0   -2879287.5    51586.024 
    1550    798.16281   -2968429.2            0   -2879289.9    51528.444 
    1600    798.50863   -2968467.2            0   -2879289.2    51515.376 
    1650    798.27098   -2968440.5            0   -2879289.1     51528.41 
    1700    797.39235   -2968341.8            0   -2879288.5     51561.34 
    1750    797.35435   -2968337.5            0   -2879288.4    51567.467 
    1800    797.49806   -2968352.5            0   -2879287.4    51549.353 
    1850    796.75588   -2968269.1            0   -2879286.9    51593.981 
    1900    798.48311   -2968462.6            0   -2879287.5    51523.125 
    1950    797.91713   -2968399.5            0   -2879287.6    51539.137 
    2000     798.4631   -2968460.9            0     -2879288     51521.28 
    2050    797.26829     -2968327            0   -2879287.6    51569.081 
    2100    798.04366     -2968414            0     -2879288    51532.583 
    2150    798.05195   -2968415.2            0   -2879288.2    51530.205 
    2200    797.94008     -2968402            0   -2879287.6    51541.008 
    2250     797.9558   -2968404.1            0   -2879287.9    51535.738 
    2300    797.20622     -2968319            0   -2879286.5    51566.805 
    2350    797.92681   -2968400.3            0   -2879287.3    51543.872 
    2400    798.17608   -2968428.1            0   -2879287.3    51537.692 
    2450    798.09776     -2968419            0   -2879286.9     51538.27 
    2500    797.53145   -2968355.2            0   -2879286.4     51562.72 
    2550    797.67807     -2968372            0   -2879286.8    51532.645 
    2600    797.67122     -2968371            0   -2879286.5    51550.226 
    2650    798.36771   -2968449.5            0   -2879287.3    51524.644 
    2700    796.23135   -2968208.6            0     -2879285    51613.919 
    2750    797.54999   -2968356.9            0     -2879286    51555.268 
    2800    797.32991   -2968331.8            0   -2879285.5    51574.485 
    2850    798.37869   -2968449.3            0   -2879285.9    51519.096 
    2900    798.00731   -2968407.9            0     -2879286      51546.2 
    2950    797.82916   -2968387.6            0   -2879285.5    51546.629 
    3000    797.85871   -2968391.4            0     -2879286    51543.584 
    3050    798.67148   -2968482.1            0     -2879286    51511.981 
    3100    798.01235   -2968407.6            0   -2879285.1    51538.219 
    3150    797.52167   -2968351.8            0   -2879284.1    51566.261 
    3200    797.83187   -2968387.1            0   -2879284.7    51544.687 
    3250    798.72532   -2968487.3            0   -2879285.1     51508.84 
    3300    797.80149   -2968383.1            0   -2879284.1    51543.743 
    3350    797.33767   -2968331.4            0   -2879284.3    51563.795 
    3400    797.60156   -2968360.1            0   -2879283.5    51554.017 
    3450    797.97147   -2968401.5            0   -2879283.5    51537.278 
    3500    798.64501     -2968477            0   -2879283.9    51513.818 
    3550    798.36766   -2968445.2            0     -2879283    51522.722 
    3600    798.11771     -2968417            0   -2879282.7    51536.112 
    3650    798.23013   -2968430.1            0   -2879283.2    51528.962 
    3700      796.968   -2968287.7            0   -2879281.8    51584.309 
    3750     799.0353     -2968521            0   -2879284.2    51489.891 
    3800    797.60878   -2968360.4            0     -2879283    51561.799 
    3850    797.58566   -2968357.2            0   -2879282.4    51540.969 
    3900    798.53968   -2968464.8            0   -2879283.4    51521.904 
    3950    798.26337   -2968433.3            0   -2879282.8    51533.894 
    4000    797.41926   -2968338.6            0   -2879282.3    51576.473 
    4050    796.39716   -2968223.2            0     -2879281    51614.492 
    4100    798.43294   -2968452.4            0   -2879282.9    51522.867 
    4150    797.86661   -2968388.6            0   -2879282.4    51546.278 
    4200    798.44309   -2968452.7            0   -2879282.1    51527.884 
    4250    796.53102   -2968238.3            0   -2879281.2     51592.02 
    4300    797.95861   -2968399.2            0   -2879282.7    51541.026 
    4350    796.70057     -2968257            0     -2879281    51589.611 
    4400    797.43066   -2968338.4            0   -2879280.8    51561.227 
    4450    797.09082   -2968299.9            0   -2879280.3    51572.794 
    4500    798.32289   -2968438.3            0   -2879281.1    51521.201 
    4550    798.11417   -2968415.3            0   -2879281.4    51542.055 
    4600    797.93019   -2968395.1            0   -2879281.7    51533.911 
    4650    796.83083   -2968270.2            0   -2879279.6    51598.837 
    4700     797.8509   -2968385.7            0   -2879281.2    51554.097 
    4750    797.75286   -2968374.7            0   -2879281.1     51545.85 
    4800    797.78087   -2968376.7            0     -2879280    51539.379 
    4850    797.77741   -2968376.5            0   -2879280.2    51542.692 
    4900    797.63883   -2968360.5            0   -2879279.7    51556.798 
    4950    797.51701   -2968346.7            0   -2879279.5    51552.673 
    5000     797.5451   -2968349.9            0   -2879279.5    51547.343 
    5050    796.90129   -2968276.9            0   -2879278.5    51588.222 
    5100    797.96593   -2968396.8            0   -2879279.5    51538.615 
    5150    797.09622   -2968298.7            0   -2879278.5    51577.224 
    5200    797.16202   -2968306.5            0   -2879278.9    51573.482 
    5250    798.18378   -2968419.8            0   -2879278.1    51523.777 
    5300    798.24187   -2968426.6            0   -2879278.5    51519.885 
    5350    797.52467   -2968345.9            0   -2879277.9    51560.577 
    5400    797.68201   -2968363.5            0   -2879277.8    51546.318 
    5450    798.07075   -2968407.9            0   -2879278.9    51532.173 
    5500    798.98919   -2968511.3            0   -2879279.6    51498.393 
    5550    797.25916   -2968316.7            0   -2879278.3    51564.258 
    5600    796.62809   -2968244.6            0   -2879276.7    51589.483 
    5650    797.71964   -2968367.5            0   -2879277.7    51554.124 
    5700    797.66625   -2968361.1            0   -2879277.2    51550.419 
    5750    797.92557   -2968390.5            0   -2879277.7     51545.69 
    5800    797.52612   -2968345.5            0   -2879277.3    51562.286 
    5850    798.15144   -2968416.3            0   -2879278.2    51538.469 
    5900    798.38144   -2968441.6            0   -2879277.9    51523.539 
    5950    797.80079   -2968376.6            0   -2879277.7    51547.617 
    6000      798.037   -2968402.9            0   -2879277.6    51541.324 
    6050    797.76937   -2968372.1            0   -2879276.7     51550.94 
    6100    798.57163   -2968462.3            0   -2879277.3    51510.323 
    6150     797.4409   -2968334.6            0   -2879275.9    51552.956 
    6200    797.48897   -2968340.1            0   -2879276.1    51566.787 
    6250    798.38643   -2968440.5            0   -2879276.2    51526.647 
    6300    798.35946     -2968438            0   -2879276.7    51528.931 
    6350    797.30278   -2968318.8            0   -2879275.5    51575.486 
    6400    797.42139   -2968331.6            0   -2879275.1    51566.452 
    6450    797.12367   -2968298.5            0   -2879275.2    51578.435 
    6500      797.118   -2968297.8            0   -2879275.2    51577.434 
    6550     798.0297   -2968399.8            0   -2879275.3     51549.48 
    6600    797.58541   -2968349.4            0   -2879274.6    51557.948 
    6650    798.25271   -2968424.6            0   -2879275.3    51526.603 
    6700    797.61074   -2968351.7            0     -2879274    51561.055 
    6750    797.21377   -2968306.4            0   -2879273.1    51581.635 
    6800     797.6969   -2968361.2            0   -2879273.9    51550.545 
    6850    797.74974   -2968366.8            0   -2879273.6    51544.892 
    6900    797.72524   -2968363.8            0   -2879273.4    51552.793 
    6950    796.99876   -2968282.1            0   -2879272.8     51588.31 
    7000    797.93754   -2968387.7            0   -2879273.5    51534.283 
    7050    797.27072   -2968312.6            0   -2879272.9    51565.079 
    7100    797.97683   -2968391.9            0   -2879273.3    51546.962 
    7150    798.04857   -2968399.8            0   -2879273.2    51551.554 
    7200    797.85952   -2968377.8            0   -2879272.3    51541.978 
    7250    797.30122   -2968316.2            0   -2879273.1    51576.023 
    7300    798.10375   -2968406.2            0   -2879273.4    51541.887 
    7350    798.86784   -2968491.3            0   -2879273.3    51507.288 
    7400    796.87343   -2968267.2            0   -2879271.9    51596.137 
    7450    797.75661     -2968367            0   -2879273.1    51542.165 
    7500    797.63021   -2968352.3            0   -2879272.4    51556.089 
    7550    797.81197   -2968373.3            0   -2879273.1    51550.469 
    7600    797.91387   -2968384.1            0   -2879272.5     51545.35 
    7650    798.18414   -2968414.6            0   -2879272.9     51526.11 
    7700    797.48945   -2968335.7            0   -2879271.5    51555.963 
    7750    797.82812   -2968374.1            0   -2879272.2    51543.887 
    7800    797.99047   -2968392.8            0   -2879272.7    51538.087 
    7850    797.66126     -2968356            0   -2879272.7    51554.028 
    7900    798.05203   -2968399.8            0   -2879272.9    51537.548 
    7950    798.20209   -2968416.5            0   -2879272.8    51539.547 
    8000    797.41827   -2968328.4            0   -2879272.2    51577.303 
    8050    797.08644   -2968290.6            0   -2879271.5     51581.62 
    8100    797.36079   -2968321.8            0     -2879272     51566.22 
    8150    797.78563   -2968369.4            0   -2879272.2    51550.471 
    8200    798.01355   -2968395.2            0   -2879272.6    51549.428 
    8250    797.82003   -2968373.1            0     -2879272    51545.529 
    8300    798.31705   -2968428.2            0   -2879271.7    51524.937 
    8350    797.29366   -2968312.7            0   -2879270.4    51568.841 
    8400    796.60977     -2968237            0   -2879271.1    51602.131 
    8450    797.13475   -2968295.1            0   -2879270.6    51577.937 
    8500    797.81667   -2968372.4            0   -2879271.7    51544.082 
    8550    798.13983   -2968407.3            0   -2879270.5    51548.338 
    8600    798.30777   -2968426.1            0   -2879270.6    51533.091 
    8650     798.1491   -2968408.7            0   -2879270.9    51536.279 
    8700    798.32102   -2968428.1            0   -2879271.2    51536.346 
    8750    798.16016   -2968410.2            0   -2879271.2    51545.429 
    8800    797.75178   -2968364.3            0   -2879270.9    51548.992 
    8850    797.21508   -2968303.8            0   -2879270.3    51575.198 
    8900    797.43983   -2968327.7            0   -2879269.1    51569.464 
    8950    798.06119   -2968397.9            0   -2879269.9    51542.088 
    9000    798.94941   -2968497.9            0   -2879270.7    51511.547 
    9050    797.54311     -2968340            0   -2879269.9     51571.58 
    9100    798.01808   -2968392.6            0   -2879269.5     51545.35 
    9150    798.37642   -2968433.1            0     -2879270    51532.379 
    9200    798.11718   -2968404.2            0     -2879270    51543.635 
    9250    797.80938     -2968369            0   -2879269.1     51559.74 
    9300     798.2589   -2968419.7            0   -2879269.6    51535.107 
    9350    797.93307   -2968382.5            0   -2879268.8    51543.209 
    9400    797.58231   -2968343.1            0   -2879268.6     51567.19 
    9450    798.52001   -2968448.3            0     -2879269    51521.204 
    9500    798.08637   -2968399.8            0     -2879269    51539.615 
    9550    798.54227   -2968450.7            0     -2879269    51518.991 
    9600    797.98711   -2968388.7            0     -2879269    51550.915 
    9650    797.77555   -2968364.6            0   -2879268.6    51549.654 
    9700    798.29296   -2968422.8            0     -2879269    51527.132 
    9750    797.10639   -2968288.9            0   -2879267.5    51582.552 
    9800    797.86243   -2968373.8            0     -2879268    51545.606 
    9850    797.15973   -2968294.6            0   -2879267.3        51581 
    9900    797.69932   -2968355.4            0   -2879267.8    51559.019 
    9950    797.71488   -2968356.5            0   -2879267.2    51560.411 
   10000    797.36534     -2968317            0   -2879266.8    51570.424 
Loop time of 1762.53 on 2 procs for 10000 steps with 864000 atoms

Performance: 2.451 ns/day, 9.792 hours/ns, 5.674 timesteps/s
99.8% CPU use with 2 MPI tasks x 1 OpenMP threads

MPI task timing breakdown:
Section |  min time  |  avg time  |  max time  |%varavg| %total
---------------------------------------------------------------
Pair    | 1472.7     | 1475.6     | 1478.4     |   7.3 | 83.72
Neigh   | 155.21     | 155.5      | 155.78     |   2.3 |  8.82
Comm    | 65.056     | 67.315     | 69.573     |  27.5 |  3.82
Output  | 0.22643    | 0.22771    | 0.229      |   0.3 |  0.01
Modify  | 45.846     | 46.23      | 46.614     |   5.6 |  2.62
Other   |            | 17.7       |            |       |  1.00

Nlocal:         432000 ave      432145 max      431855 min
Histogram: 1 0 0 0 0 0 0 0 0 1
Nghost:         108311 ave      108454 max      108168 min
Histogram: 1 0 0 0 0 0 0 0 0 1
Neighs:    1.63089e+07 ave 1.63167e+07 max 1.63011e+07 min
Histogram: 1 0 0 0 0 0 0 0 0 1

Total # of neighbors = 32617799
Ave neighs/atom = 37.752082
Neighbor list builds = 1637
Dangerous builds = 13
Total wall time: 0:29:23
Intel(R) VTune(TM) Profiler 2022.2.0 collection completed successfully. Use the "aps --report /home/ubuntu/lammps/bench/aps_result_20220703" command to generate textual and HTML reports for the profiling session.
