LAMMPS (7 Jan 2022)
  using 1 OpenMP thread(s) per MPI task
Lattice spacing in x,y,z = 3.615 3.615 3.615
Created orthogonal box = (0 0 0) to (144.6 144.6 144.6)
  2 by 2 by 2 MPI processor grid
Created 256000 atoms
  using lattice units in orthogonal box = (0 0 0) to (144.6 144.6 144.6)
  create_atoms CPU = 0.028 seconds
Reading eam potential file Cu_u3.eam with DATE: 2007-06-11
----------------------------------------------------------
Using INTEL Package without Coprocessor.
Compiler: Intel Classic C++ 20.21.5 / Intel(R) C++ g++ 9.3 mode
SIMD compiler directives: Enabled
Precision: double
----------------------------------------------------------
Neighbor list info ...
  update every 1 steps, delay 5 steps, check yes
  max neighbors/atom: 2000, page size: 100000
  master list distance cutoff = 5.95
  ghost atom cutoff = 5.95
  binsize = 2.975, bins = 49 49 49
  1 neighbor lists, perpetual/occasional/extra = 1 0 0
  (1) pair eam/intel, perpetual
      attributes: half, newton on, intel
      pair build: half/bin/newton/intel
      stencil: half/bin/3d
      bin: intel
Setting up Verlet run ...
  Unit style    : metal
  Current step  : 0
  Time step     : 0.005
Per MPI rank memory allocation (min/avg/max) = 285 | 285 | 285 Mbytes
Step Temp E_pair E_mol TotEng Press 
       0         1600      -906240            0   -853295.25    18704.085 
      50    780.37025   -878942.76            0   -853119.94    52325.542 
     100    798.91514   -879560.79            0   -853124.32    51436.878 
Loop time of 3.95266 on 8 procs for 100 steps with 256000 atoms

Performance: 10.929 ns/day, 2.196 hours/ns, 25.299 timesteps/s
71.7% CPU use with 8 MPI tasks x 1 OpenMP threads

MPI task timing breakdown:
Section |  min time  |  avg time  |  max time  |%varavg| %total
---------------------------------------------------------------
Pair    | 2.2767     | 2.3998     | 2.6976     |  10.1 | 60.71
Neigh   | 0.12815    | 0.15437    | 0.23239    |  10.4 |  3.91
Comm    | 0.94497    | 1.224      | 1.3335     |  12.8 | 30.97
Output  | 0.00021362 | 0.0002331  | 0.00025825 |   0.0 |  0.01
Modify  | 0.028984   | 0.030561   | 0.031617   |   0.4 |  0.77
Other   |            | 0.1437     |            |       |  3.63

Nlocal:          32000 ave       32097 max       31720 min
Histogram: 1 0 0 0 0 0 0 3 1 3
Nghost:        19909.8 ave       20189 max       19814 min
Histogram: 3 1 3 0 0 0 0 0 0 1
Neighs:    1.20728e+06 ave 1.21146e+06 max 1.19592e+06 min
Histogram: 1 0 0 0 0 0 0 3 1 3

Total # of neighbors = 9658204
Ave neighs/atom = 37.727359
Neighbor list builds = 15
Dangerous builds = 0
Total wall time: 0:00:04
Intel(R) VTune(TM) Profiler 2022.2.0 collection completed successfully. Use the "aps --report /home/ubuntu/lammps/bench/aps_result_20220531" command to generate textual and HTML reports for the profiling session.
