LAMMPS (7 Jan 2022)
  using 1 OpenMP thread(s) per MPI task
Lattice spacing in x,y,z = 3.615 3.615 3.615
Created orthogonal box = (0 0 0) to (216.9 216.9 216.9)
  1 by 1 by 2 MPI processor grid
Created 864000 atoms
  using lattice units in orthogonal box = (0 0 0) to (216.9 216.9 216.9)
  create_atoms CPU = 0.056 seconds
Reading eam potential file Cu_u3.eam with DATE: 2007-06-11
----------------------------------------------------------
Using INTEL Package without Coprocessor.
Compiler: Intel Classic C++ 20.21.5 / Intel(R) C++ g++ 9.3 mode
SIMD compiler directives: Enabled
Precision: double
----------------------------------------------------------
Neighbor list info ...
  update every 1 steps, delay 5 steps, check yes
  max neighbors/atom: 2000, page size: 100000
  master list distance cutoff = 5.95
  ghost atom cutoff = 5.95
  binsize = 2.975, bins = 73 73 73
  1 neighbor lists, perpetual/occasional/extra = 1 0 0
  (1) pair eam/intel, perpetual
      attributes: half, newton on, intel
      pair build: half/bin/newton/intel
      stencil: half/bin/3d
      bin: intel
Setting up Verlet run ...
  Unit style    : metal
  Current step  : 0
  Time step     : 0.005
Per MPI rank memory allocation (min/avg/max) = 3771 | 3771 | 3771 Mbytes
Step Temp E_pair E_mol TotEng Press 
       0         1600     -3058560            0     -2879871    18704.136 
      50    780.51286   -2966447.6            0   -2879279.4    52309.328 
     100    798.57089     -2968477            0   -2879292.1    51460.466 
Loop time of 17.2169 on 2 procs for 100 steps with 864000 atoms

Performance: 2.509 ns/day, 9.565 hours/ns, 5.808 timesteps/s
99.8% CPU use with 2 MPI tasks x 1 OpenMP threads

MPI task timing breakdown:
Section |  min time  |  avg time  |  max time  |%varavg| %total
---------------------------------------------------------------
Pair    | 14.274     | 14.31      | 14.346     |   1.0 | 83.11
Neigh   | 1.575      | 1.5894     | 1.6038     |   1.1 |  9.23
Comm    | 0.58391    | 0.63211    | 0.6803     |   6.1 |  3.67
Output  | 0.0022981  | 0.0023175  | 0.0023369  |   0.0 |  0.01
Modify  | 0.50291    | 0.50433    | 0.50574    |   0.2 |  2.93
Other   |            | 0.179      |            |       |  1.04

Nlocal:         432000 ave      432002 max      431998 min
Histogram: 1 0 0 0 0 0 0 0 0 1
Nghost:         108316 ave      108317 max      108314 min
Histogram: 1 0 0 0 0 0 0 0 0 1
Neighs:    1.62978e+07 ave 1.62979e+07 max 1.62977e+07 min
Histogram: 1 0 0 0 0 0 0 0 0 1

Total # of neighbors = 32595623
Ave neighs/atom = 37.726416
Neighbor list builds = 15
Dangerous builds = 0
Total wall time: 0:00:17
Intel(R) VTune(TM) Profiler 2022.2.0 collection completed successfully. Use the "aps --report /home/ubuntu/lammps/bench/aps_result_20220601" command to generate textual and HTML reports for the profiling session.
