LAMMPS (7 Jan 2022)
  using 1 OpenMP thread(s) per MPI task
Lattice spacing in x,y,z = 3.615 3.615 3.615
Created orthogonal box = (0 0 0) to (216.9 216.9 216.9)
  2 by 4 by 4 MPI processor grid
Created 864000 atoms
  using lattice units in orthogonal box = (0 0 0) to (216.9 216.9 216.9)
  create_atoms CPU = 0.005 seconds
Reading eam potential file Cu_u3.eam with DATE: 2007-06-11
----------------------------------------------------------
Using INTEL Package without Coprocessor.
Compiler: Intel Classic C++ 20.21.5 / Intel(R) C++ g++ 9.3 mode
SIMD compiler directives: Enabled
Precision: single
----------------------------------------------------------
Neighbor list info ...
  update every 1 steps, delay 5 steps, check yes
  max neighbors/atom: 2000, page size: 100000
  master list distance cutoff = 5.95
  ghost atom cutoff = 5.95
  binsize = 2.975, bins = 73 73 73
  1 neighbor lists, perpetual/occasional/extra = 1 0 0
  (1) pair eam/intel, perpetual
      attributes: half, newton on, intel
      pair build: half/bin/newton/intel
      stencil: half/bin/3d
      bin: intel
Setting up Verlet run ...
  Unit style    : metal
  Current step  : 0
  Time step     : 0.005
Per MPI rank memory allocation (min/avg/max) = 238.3 | 238.3 | 238.3 Mbytes
Step Temp E_pair E_mol TotEng Press 
       0         1600   -3058624.9            0   -2879935.8    18704.253 
      50     780.5128   -2966450.3            0   -2879282.1    52309.331 
     100    798.57092   -2968472.4            0   -2879287.5    51460.491 
Loop time of 4.99258 on 32 procs for 100 steps with 864000 atoms

Performance: 8.653 ns/day, 2.774 hours/ns, 20.030 timesteps/s
77.2% CPU use with 32 MPI tasks x 1 OpenMP threads

MPI task timing breakdown:
Section |  min time  |  avg time  |  max time  |%varavg| %total
---------------------------------------------------------------
Pair    | 2.4298     | 2.6728     | 3.2242     |  12.3 | 53.54
Neigh   | 0.098753   | 0.11097    | 0.2269     |   8.4 |  2.22
Comm    | 1.3916     | 1.6806     | 1.7555     |   4.5 | 33.66
Output  | 0.00025873 | 0.0072309  | 0.016175   |   9.3 |  0.14
Modify  | 0.034275   | 0.039221   | 0.051995   |   1.3 |  0.79
Other   |            | 0.4818     |            |       |  9.65

Nlocal:          27000 ave       27192 max       26834 min
Histogram: 1 2 4 4 7 7 3 2 0 2
Nghost:        18859.9 ave       19027 max       18668 min
Histogram: 2 0 2 3 7 8 4 3 2 1
Neighs:    1.01861e+06 ave 1.02655e+06 max 1.01144e+06 min
Histogram: 1 2 3 6 4 9 2 3 1 1

Total # of neighbors = 32595646
Ave neighs/atom = 37.726442
Neighbor list builds = 15
Dangerous builds = 0
Total wall time: 0:00:05
Intel(R) VTune(TM) Profiler 2022.2.0 collection completed successfully. Use the "aps --report /home/ubuntu/lammps/bench/aps_result_20220531" command to generate textual and HTML reports for the profiling session.
