LAMMPS (7 Jan 2022)
  using 1 OpenMP thread(s) per MPI task
Lattice spacing in x,y,z = 3.615 3.615 3.615
Created orthogonal box = (0 0 0) to (144.6 144.6 144.6)
  4 by 4 by 4 MPI processor grid
Created 256000 atoms
  using lattice units in orthogonal box = (0 0 0) to (144.6 144.6 144.6)
  create_atoms CPU = 0.029 seconds
Reading eam potential file Cu_u3.eam with DATE: 2007-06-11
----------------------------------------------------------
Using INTEL Package without Coprocessor.
Compiler: Intel Classic C++ 20.21.5 / Intel(R) C++ g++ 9.3 mode
SIMD compiler directives: Enabled
Precision: double
----------------------------------------------------------
Neighbor list info ...
  update every 1 steps, delay 5 steps, check yes
  max neighbors/atom: 2000, page size: 100000
  master list distance cutoff = 5.95
  ghost atom cutoff = 5.95
  binsize = 2.975, bins = 49 49 49
  1 neighbor lists, perpetual/occasional/extra = 1 0 0
  (1) pair eam/intel, perpetual
      attributes: half, newton on, intel
      pair build: half/bin/newton/intel
      stencil: half/bin/3d
      bin: intel
Setting up Verlet run ...
  Unit style    : metal
  Current step  : 0
  Time step     : 0.005
Per MPI rank memory allocation (min/avg/max) = 33.08 | 37.88 | 43.18 Mbytes
Step Temp E_pair E_mol TotEng Press 
       0         1600      -906240            0   -853295.25    18704.085 
      50    780.37025   -878942.76            0   -853119.94    52325.542 
     100    798.91514   -879560.79            0   -853124.32    51436.878 
Loop time of 1.5279 on 64 procs for 100 steps with 256000 atoms

Performance: 28.274 ns/day, 0.849 hours/ns, 65.449 timesteps/s
76.6% CPU use with 64 MPI tasks x 1 OpenMP threads

MPI task timing breakdown:
Section |  min time  |  avg time  |  max time  |%varavg| %total
---------------------------------------------------------------
Pair    | 0.58582    | 0.67562    | 0.78974    |   6.9 | 44.22
Neigh   | 0.017879   | 0.022029   | 0.073935   |   4.6 |  1.44
Comm    | 0.39221    | 0.55253    | 0.6767     |   8.6 | 36.16
Output  | 0.0032939  | 0.012452   | 0.019137   |   7.0 |  0.81
Modify  | 0.0036211  | 0.0043014  | 0.0051698  |   0.5 |  0.28
Other   |            | 0.261      |            |       | 17.08

Nlocal:           4000 ave        4077 max        3943 min
Histogram: 4 5 10 11 10 12 6 3 2 1
Nghost:        5840.62 ave        5898 max        5764 min
Histogram: 1 2 3 6 10 13 10 10 5 4
Neighs:         150909 ave      154047 max      148537 min
Histogram: 3 7 7 12 9 10 9 4 2 1

Total # of neighbors = 9658204
Ave neighs/atom = 37.727359
Neighbor list builds = 15
Dangerous builds = 0
Total wall time: 0:00:01
Intel(R) VTune(TM) Profiler 2022.2.0 collection completed successfully. Use the "aps --report /home/ubuntu/lammps/bench/aps_result_20220531" command to generate textual and HTML reports for the profiling session.
