LAMMPS (7 Jan 2022)
  using 1 OpenMP thread(s) per MPI task
Lattice spacing in x,y,z = 3.615 3.615 3.615
Created orthogonal box = (0 0 0) to (72.3 72.3 72.3)
  2 by 2 by 2 MPI processor grid
Created 32000 atoms
  using lattice units in orthogonal box = (0 0 0) to (72.3 72.3 72.3)
  create_atoms CPU = 0.002 seconds
Reading eam potential file Cu_u3.eam with DATE: 2007-06-11
----------------------------------------------------------
Using INTEL Package without Coprocessor.
Compiler: Intel Classic C++ 20.21.5 / Intel(R) C++ g++ 9.3 mode
SIMD compiler directives: Enabled
Precision: single
----------------------------------------------------------
Neighbor list info ...
  update every 1 steps, delay 5 steps, check yes
  max neighbors/atom: 2000, page size: 100000
  master list distance cutoff = 5.95
  ghost atom cutoff = 5.95
  binsize = 2.975, bins = 25 25 25
  1 neighbor lists, perpetual/occasional/extra = 1 0 0
  (1) pair eam/intel, perpetual
      attributes: half, newton on, intel
      pair build: half/bin/newton/intel
      stencil: half/bin/3d
      bin: intel
Setting up Verlet run ...
  Unit style    : metal
  Current step  : 0
  Time step     : 0.005
Per MPI rank memory allocation (min/avg/max) = 37.58 | 37.58 | 37.58 Mbytes
Step Temp E_pair E_mol TotEng Press 
       0         1600   -113279.37            0   -106661.46    18703.488 
      50    781.69067   -109873.29            0   -106640.07    52273.083 
     100    801.83207   -109957.13            0    -106640.6    51322.796 
Loop time of 1.99845 on 8 procs for 100 steps with 32000 atoms

Performance: 21.617 ns/day, 1.110 hours/ns, 50.039 timesteps/s
66.2% CPU use with 8 MPI tasks x 1 OpenMP threads

MPI task timing breakdown:
Section |  min time  |  avg time  |  max time  |%varavg| %total
---------------------------------------------------------------
Pair    | 0.93534    | 0.97673    | 1.0347     |   2.6 | 48.87
Neigh   | 0.015322   | 0.027058   | 0.092733   |  15.3 |  1.35
Comm    | 0.70511    | 0.74549    | 0.82637    |   4.5 | 37.30
Output  | 0.060033   | 0.085183   | 0.090901   |   3.7 |  4.26
Modify  | 0.002342   | 0.0026221  | 0.0027486  |   0.3 |  0.13
Other   |            | 0.1614     |            |       |  8.07

Nlocal:           4000 ave        4016 max        3983 min
Histogram: 1 0 1 1 0 2 1 0 1 1
Nghost:        5840.62 ave        5858 max        5825 min
Histogram: 1 1 0 2 1 0 2 0 0 1
Neighs:         150973 ave      151488 max      150424 min
Histogram: 2 0 0 0 3 0 0 0 2 1

Total # of neighbors = 1207782
Ave neighs/atom = 37.743187
Neighbor list builds = 13
Dangerous builds = 0
Total wall time: 0:00:02
Intel(R) VTune(TM) Profiler 2022.2.0 collection completed successfully. Use the "aps --report /home/ubuntu/lammps/bench/aps_result_20220531" command to generate textual and HTML reports for the profiling session.
