LAMMPS (7 Jan 2022)
  using 1 OpenMP thread(s) per MPI task
Lattice spacing in x,y,z = 3.615 3.615 3.615
Created orthogonal box = (0 0 0) to (144.6 144.6 144.6)
  4 by 4 by 4 MPI processor grid
Created 256000 atoms
  using lattice units in orthogonal box = (0 0 0) to (144.6 144.6 144.6)
  create_atoms CPU = 0.002 seconds
Reading eam potential file Cu_u3.eam with DATE: 2007-06-11
----------------------------------------------------------
Using INTEL Package without Coprocessor.
Compiler: Intel Classic C++ 20.21.5 / Intel(R) C++ g++ 9.3 mode
SIMD compiler directives: Enabled
Precision: single
----------------------------------------------------------
Neighbor list info ...
  update every 1 steps, delay 5 steps, check yes
  max neighbors/atom: 2000, page size: 100000
  master list distance cutoff = 5.95
  ghost atom cutoff = 5.95
  binsize = 2.975, bins = 49 49 49
  1 neighbor lists, perpetual/occasional/extra = 1 0 0
  (1) pair eam/intel, perpetual
      attributes: half, newton on, intel
      pair build: half/bin/newton/intel
      stencil: half/bin/3d
      bin: intel
Setting up Verlet run ...
  Unit style    : metal
  Current step  : 0
  Time step     : 0.005
Per MPI rank memory allocation (min/avg/max) = 32.75 | 37.55 | 42.85 Mbytes
Step Temp E_pair E_mol TotEng Press 
       0         1600   -906235.74            0   -853290.99    18703.988 
      50    780.37023   -878942.35            0   -853119.53    52325.522 
     100     798.9152   -879560.84            0   -853124.36     51436.87 
Loop time of 0.973074 on 64 procs for 100 steps with 256000 atoms

Performance: 44.395 ns/day, 0.541 hours/ns, 102.767 timesteps/s
77.1% CPU use with 64 MPI tasks x 1 OpenMP threads

MPI task timing breakdown:
Section |  min time  |  avg time  |  max time  |%varavg| %total
---------------------------------------------------------------
Pair    | 0.41331    | 0.51103    | 0.63492    |   7.0 | 52.52
Neigh   | 0.014757   | 0.017667   | 0.020419   |   1.5 |  1.82
Comm    | 0.19597    | 0.34153    | 0.47678    |  12.2 | 35.10
Output  | 0.00010192 | 0.00012317 | 0.00017337 |   0.0 |  0.01
Modify  | 0.002838   | 0.003649   | 0.019681   |   3.4 |  0.37
Other   |            | 0.09908    |            |       | 10.18

Nlocal:           4000 ave        4077 max        3943 min
Histogram: 4 5 10 11 10 12 6 3 2 1
Nghost:        5840.62 ave        5898 max        5764 min
Histogram: 1 2 3 6 10 13 10 10 5 4
Neighs:         150909 ave      154047 max      148537 min
Histogram: 3 7 7 12 9 10 9 4 2 1

Total # of neighbors = 9658196
Ave neighs/atom = 37.727328
Neighbor list builds = 15
Dangerous builds = 0
Total wall time: 0:00:01
Intel(R) VTune(TM) Profiler 2022.2.0 collection completed successfully. Use the "aps --report /home/ubuntu/lammps/bench/aps_result_20220531" command to generate textual and HTML reports for the profiling session.
