LAMMPS (7 Jan 2022)
  using 1 OpenMP thread(s) per MPI task
Lattice spacing in x,y,z = 3.615 3.615 3.615
Created orthogonal box = (0 0 0) to (144.6 144.6 144.6)
  2 by 2 by 4 MPI processor grid
Created 256000 atoms
  using lattice units in orthogonal box = (0 0 0) to (144.6 144.6 144.6)
  create_atoms CPU = 0.006 seconds
Reading eam potential file Cu_u3.eam with DATE: 2007-06-11
----------------------------------------------------------
Using INTEL Package without Coprocessor.
Compiler: Intel Classic C++ 20.21.5 / Intel(R) C++ g++ 9.3 mode
SIMD compiler directives: Enabled
Precision: double
----------------------------------------------------------
Neighbor list info ...
  update every 1 steps, delay 5 steps, check yes
  max neighbors/atom: 2000, page size: 100000
  master list distance cutoff = 5.95
  ghost atom cutoff = 5.95
  binsize = 2.975, bins = 49 49 49
  1 neighbor lists, perpetual/occasional/extra = 1 0 0
  (1) pair eam/intel, perpetual
      attributes: half, newton on, intel
      pair build: half/bin/newton/intel
      stencil: half/bin/3d
      bin: intel
Setting up Verlet run ...
  Unit style    : metal
  Current step  : 0
  Time step     : 0.005
Per MPI rank memory allocation (min/avg/max) = 136.8 | 143.6 | 150.3 Mbytes
Step Temp E_pair E_mol TotEng Press 
       0         1600      -906240            0   -853295.25    18704.085 
      50    780.37025   -878942.76            0   -853119.94    52325.542 
     100    798.91514   -879560.79            0   -853124.32    51436.878 
Loop time of 0.886056 on 16 procs for 100 steps with 256000 atoms

Performance: 48.755 ns/day, 0.492 hours/ns, 112.860 timesteps/s
99.3% CPU use with 16 MPI tasks x 1 OpenMP threads

MPI task timing breakdown:
Section |  min time  |  avg time  |  max time  |%varavg| %total
---------------------------------------------------------------
Pair    | 0.69024    | 0.69438    | 0.70076    |   0.4 | 78.37
Neigh   | 0.079217   | 0.080314   | 0.082871   |   0.3 |  9.06
Comm    | 0.058649   | 0.067647   | 0.075802   |   1.6 |  7.63
Output  | 0.0002485  | 0.0002754  | 0.00035006 |   0.0 |  0.03
Modify  | 0.025359   | 0.028242   | 0.031532   |   1.0 |  3.19
Other   |            | 0.0152     |            |       |  1.72

Nlocal:          16000 ave       16109 max       15846 min
Histogram: 1 1 0 1 3 3 1 3 1 2
Nghost:        13820.3 ave       13975 max       13711 min
Histogram: 2 0 4 2 2 3 1 0 1 1
Neighs:         603638 ave      607955 max      597739 min
Histogram: 2 0 0 1 2 3 2 2 2 2

Total # of neighbors = 9658204
Ave neighs/atom = 37.727359
Neighbor list builds = 15
Dangerous builds = 0
Total wall time: 0:00:00
Intel(R) VTune(TM) Profiler 2022.2.0 collection completed successfully. Use the "aps --report /home/ubuntu/lammps/bench/aps_result_20220601" command to generate textual and HTML reports for the profiling session.
