LAMMPS (7 Jan 2022)
  using 1 OpenMP thread(s) per MPI task
New timer settings: style=full  mode=nosync  timeout=off
Lattice spacing in x,y,z = 3.615 3.615 3.615
Created orthogonal box = (0 0 0) to (144.6 144.6 144.6)
  2 by 2 by 2 MPI processor grid
Created 256000 atoms
  using lattice units in orthogonal box = (0 0 0) to (144.6 144.6 144.6)
  create_atoms CPU = 0.010 seconds
Reading eam potential file Cu_u3.eam with DATE: 2007-06-11
----------------------------------------------------------
Using INTEL Package without Coprocessor.
Compiler: Intel Classic C++ 20.21.5 / Intel(R) C++ g++ 9.3 mode
SIMD compiler directives: Enabled
Precision: mixed
----------------------------------------------------------
Neighbor list info ...
  update every 1 steps, delay 5 steps, check yes
  max neighbors/atom: 2000, page size: 100000
  master list distance cutoff = 5.95
  ghost atom cutoff = 5.95
  binsize = 2.975, bins = 49 49 49
  1 neighbor lists, perpetual/occasional/extra = 1 0 0
  (1) pair eam/intel, perpetual
      attributes: half, newton on, intel
      pair build: half/bin/newton/intel
      stencil: half/bin/3d
      bin: intel
Setting up Verlet run ...
  Unit style    : metal
  Current step  : 0
  Time step     : 0.005
Per MPI rank memory allocation (min/avg/max) = 284.2 | 284.2 | 284.2 Mbytes
Step Temp E_pair E_mol TotEng Press 
       0         1600   -906239.72            0   -853294.98        18704 
      50     780.3702   -878942.74            0   -853119.93     52325.52 
     100    798.91518   -879560.78            0    -853124.3    51436.892 
Loop time of 1.77802 on 8 procs for 100 steps with 256000 atoms

Performance: 24.297 ns/day, 0.988 hours/ns, 56.242 timesteps/s
99.2% CPU use with 8 MPI tasks x 1 OpenMP threads

MPI task timing breakdown:
Section |  min time  |  avg time  |  max time  |%varavg|  %CPU | %total
-----------------------------------------------------------------------
Pair    | 1.4021     | 1.4086     | 1.4231     |   0.5 |  99.3 | 79.22
Neigh   | 0.14268    | 0.14441    | 0.14783    |   0.4 |  99.5 |  8.12
Comm    | 0.11187    | 0.13365    | 0.14482    |   2.7 |  98.7 |  7.52
Output  | 0.00038191 | 0.00043186 | 0.00045886 |   0.0 | 100.0 |  0.02
Modify  | 0.05666    | 0.061914   | 0.068498   |   1.6 |  99.1 |  3.48
Other   |            | 0.02898    |            |       |       |  1.63

Nlocal:          32000 ave       32097 max       31720 min
Histogram: 1 0 0 0 0 0 0 3 1 3
Nghost:        19909.8 ave       20189 max       19814 min
Histogram: 3 1 3 0 0 0 0 0 0 1
Neighs:    1.20727e+06 ave 1.21146e+06 max 1.19592e+06 min
Histogram: 1 0 0 0 0 0 0 3 2 2

Total # of neighbors = 9658192
Ave neighs/atom = 37.727312
Neighbor list builds = 15
Dangerous builds = 0
Total wall time: 0:00:01
Intel(R) VTune(TM) Profiler 2022.2.0 collection completed successfully. Use the "aps --report /home/ubuntu/lammps/bench/aps_result_20220519" command to generate textual and HTML reports for the profiling session.
