LAMMPS (7 Jan 2022)
  using 1 OpenMP thread(s) per MPI task
Lattice spacing in x,y,z = 3.615 3.615 3.615
Created orthogonal box = (0 0 0) to (72.3 72.3 72.3)
  1 by 1 by 1 MPI processor grid
Created 32000 atoms
  using lattice units in orthogonal box = (0 0 0) to (72.3 72.3 72.3)
  create_atoms CPU = 0.009 seconds
Reading eam potential file Cu_u3.eam with DATE: 2007-06-11
----------------------------------------------------------
Using INTEL Package without Coprocessor.
Compiler: Intel Classic C++ 20.21.5 / Intel(R) C++ g++ 9.3 mode
SIMD compiler directives: Enabled
Precision: mixed
----------------------------------------------------------
Neighbor list info ...
  update every 1 steps, delay 5 steps, check yes
  max neighbors/atom: 2000, page size: 100000
  master list distance cutoff = 5.95
  ghost atom cutoff = 5.95
  binsize = 2.975, bins = 25 25 25
  1 neighbor lists, perpetual/occasional/extra = 1 0 0
  (1) pair eam/intel, perpetual
      attributes: half, newton on, intel
      pair build: half/bin/newton/intel
      stencil: half/bin/3d
      bin: intel
Setting up Verlet run ...
  Unit style    : metal
  Current step  : 0
  Time step     : 0.005
Per MPI rank memory allocation (min/avg/max) = 283.9 | 283.9 | 283.9 Mbytes
Step Temp E_pair E_mol TotEng Press 
       0         1600   -113279.97            0   -106662.06    18703.495 
      50    781.69065   -109873.35            0   -106640.12    52273.086 
     100    801.83202    -109957.3            0   -106640.76    51322.822 
Loop time of 1.51583 on 1 procs for 100 steps with 32000 atoms

Performance: 28.499 ns/day, 0.842 hours/ns, 65.970 timesteps/s
100.0% CPU use with 1 MPI tasks x 1 OpenMP threads

MPI task timing breakdown:
Section |  min time  |  avg time  |  max time  |%varavg| %total
---------------------------------------------------------------
Pair    | 1.3247     | 1.3247     | 1.3247     |   0.0 | 87.39
Neigh   | 0.12043    | 0.12043    | 0.12043    |   0.0 |  7.94
Comm    | 0.03223    | 0.03223    | 0.03223    |   0.0 |  2.13
Output  | 0.00015379 | 0.00015379 | 0.00015379 |   0.0 |  0.01
Modify  | 0.025686   | 0.025686   | 0.025686   |   0.0 |  1.69
Other   |            | 0.01266    |            |       |  0.84

Nlocal:          32000 ave       32000 max       32000 min
Histogram: 1 0 0 0 0 0 0 0 0 0
Nghost:          19909 ave       19909 max       19909 min
Histogram: 1 0 0 0 0 0 0 0 0 0
Neighs:    1.20778e+06 ave 1.20778e+06 max 1.20778e+06 min
Histogram: 1 0 0 0 0 0 0 0 0 0

Total # of neighbors = 1207783
Ave neighs/atom = 37.743219
Neighbor list builds = 13
Dangerous builds = 0
Total wall time: 0:00:01
Intel(R) VTune(TM) Profiler 2022.2.0 collection completed successfully. Use the "aps --report /home/ubuntu/lammps/bench/aps_result_20220526" command to generate textual and HTML reports for the profiling session.
