LAMMPS (7 Jan 2022)
  using 1 OpenMP thread(s) per MPI task
Lattice spacing in x,y,z = 3.615 3.615 3.615
Created orthogonal box = (0 0 0) to (144.6 144.6 144.6)
  2 by 2 by 4 MPI processor grid
Created 256000 atoms
  using lattice units in orthogonal box = (0 0 0) to (144.6 144.6 144.6)
  create_atoms CPU = 0.004 seconds
Reading eam potential file Cu_u3.eam with DATE: 2007-06-11
----------------------------------------------------------
Using INTEL Package without Coprocessor.
Compiler: Intel Classic C++ 20.21.5 / Intel(R) C++ g++ 9.3 mode
SIMD compiler directives: Enabled
Precision: single
----------------------------------------------------------
Neighbor list info ...
  update every 1 steps, delay 5 steps, check yes
  max neighbors/atom: 2000, page size: 100000
  master list distance cutoff = 5.95
  ghost atom cutoff = 5.95
  binsize = 2.975, bins = 49 49 49
  1 neighbor lists, perpetual/occasional/extra = 1 0 0
  (1) pair eam/intel, perpetual
      attributes: half, newton on, intel
      pair build: half/bin/newton/intel
      stencil: half/bin/3d
      bin: intel
Setting up Verlet run ...
  Unit style    : metal
  Current step  : 0
  Time step     : 0.005
Per MPI rank memory allocation (min/avg/max) = 135.8 | 142.6 | 149.3 Mbytes
Step Temp E_pair E_mol TotEng Press 
       0         1600   -906322.02            0   -853377.27    18704.029 
      50    780.37022   -878943.36            0   -853120.55    52325.533 
     100    798.91531    -879560.7            0   -853124.21    51436.883 
Loop time of 0.864274 on 16 procs for 100 steps with 256000 atoms

Performance: 49.984 ns/day, 0.480 hours/ns, 115.704 timesteps/s
99.4% CPU use with 16 MPI tasks x 1 OpenMP threads

MPI task timing breakdown:
Section |  min time  |  avg time  |  max time  |%varavg| %total
---------------------------------------------------------------
Pair    | 0.68649    | 0.69066    | 0.69401    |   0.2 | 79.91
Neigh   | 0.072737   | 0.073292   | 0.075221   |   0.2 |  8.48
Comm    | 0.05681    | 0.062328   | 0.065673   |   1.0 |  7.21
Output  | 0.00023277 | 0.00026235 | 0.00029789 |   0.0 |  0.03
Modify  | 0.02107    | 0.022839   | 0.025981   |   1.0 |  2.64
Other   |            | 0.0149     |            |       |  1.72

Nlocal:          16000 ave       16109 max       15846 min
Histogram: 1 1 0 1 3 3 1 3 1 2
Nghost:        13820.3 ave       13975 max       13711 min
Histogram: 2 0 4 2 2 3 1 0 1 1
Neighs:         603638 ave      607955 max      597739 min
Histogram: 2 0 0 1 2 3 2 2 2 2

Total # of neighbors = 9658200
Ave neighs/atom = 37.727344
Neighbor list builds = 15
Dangerous builds = 0
Total wall time: 0:00:00
Intel(R) VTune(TM) Profiler 2022.2.0 collection completed successfully. Use the "aps --report /home/ubuntu/lammps/bench/aps_result_20220601" command to generate textual and HTML reports for the profiling session.
