LAMMPS (7 Jan 2022)
  using 1 OpenMP thread(s) per MPI task
Lattice spacing in x,y,z = 1.6795962 1.6795962 1.6795962
Created orthogonal box = (0 0 0) to (33.591924 33.591924 33.591924)
  2 by 4 by 4 MPI processor grid
Created 32000 atoms
  using lattice units in orthogonal box = (0 0 0) to (33.591924 33.591924 33.591924)
  create_atoms CPU = 0.001 seconds
----------------------------------------------------------
Using INTEL Package without Coprocessor.
Compiler: Intel Classic C++ 20.21.5 / Intel(R) C++ g++ 9.3 mode
SIMD compiler directives: Enabled
Precision: single
----------------------------------------------------------
  generated 0 of 0 mixed pair_coeff terms from geometric mixing rule
Neighbor list info ...
  update every 20 steps, delay 0 steps, check no
  max neighbors/atom: 2000, page size: 100000
  master list distance cutoff = 2.8
  ghost atom cutoff = 2.8
  binsize = 1.4, bins = 24 24 24
  1 neighbor lists, perpetual/occasional/extra = 1 0 0
  (1) pair lj/cut/intel, perpetual
      attributes: half, newton on, intel
      pair build: half/bin/newton/intel
      stencil: half/bin/3d
      bin: intel
Setting up Verlet run ...
  Unit style    : lj
  Current step  : 0
  Time step     : 0.005
Per MPI rank memory allocation (min/avg/max) = 9.653 | 11.25 | 13.01 Mbytes
Step Temp E_pair E_mol TotEng Press 
       0         1.44   -6.7733928            0   -4.6134603   -5.0197078 
     100   0.75745334   -5.7585073            0   -4.6223628   0.20725985 
Loop time of 0.0397016 on 32 procs for 100 steps with 32000 atoms

Performance: 1088117.155 tau/day, 2518.790 timesteps/s
82.0% CPU use with 32 MPI tasks x 1 OpenMP threads

MPI task timing breakdown:
Section |  min time  |  avg time  |  max time  |%varavg| %total
---------------------------------------------------------------
Pair    | 0.012376   | 0.016385   | 0.021802   |   1.7 | 41.27
Neigh   | 0.0014883  | 0.0019901  | 0.0027689  |   0.6 |  5.01
Comm    | 0.01363    | 0.020057   | 0.024722   |   1.8 | 50.52
Output  | 2.6159e-05 | 0.00012956 | 0.00026512 |   0.0 |  0.33
Modify  | 0.00065744 | 0.00088492 | 0.0012027  |   0.0 |  2.23
Other   |            | 0.0002558  |            |       |  0.64

Nlocal:           1000 ave        1027 max         971 min
Histogram: 1 3 3 4 4 5 3 3 3 3
Nghost:        2855.16 ave        2890 max        2822 min
Histogram: 2 1 4 6 2 7 4 2 2 2
Neighs:        37588.6 ave       39265 max       35681 min
Histogram: 1 2 2 4 8 4 0 4 5 2

Total # of neighbors = 1202835
Ave neighs/atom = 37.588594
Neighbor list builds = 5
Dangerous builds not checked
Total wall time: 0:00:00
Intel(R) VTune(TM) Profiler 2022.2.0 collection completed successfully. Use the "aps --report /home/ubuntu/lammps/bench/aps_result_20220601" command to generate textual and HTML reports for the profiling session.
