LAMMPS (7 Jan 2022)
  using 1 OpenMP thread(s) per MPI task
Lattice spacing in x,y,z = 1.6795962 1.6795962 1.6795962
Created orthogonal box = (0 0 0) to (100.77577 100.77577 100.77577)
  4 by 4 by 4 MPI processor grid
Created 864000 atoms
  using lattice units in orthogonal box = (0 0 0) to (100.77577 100.77577 100.77577)
  create_atoms CPU = 0.003 seconds
----------------------------------------------------------
Using INTEL Package without Coprocessor.
Compiler: Intel Classic C++ 20.21.5 / Intel(R) C++ g++ 9.3 mode
SIMD compiler directives: Enabled
Precision: single
----------------------------------------------------------
  generated 0 of 0 mixed pair_coeff terms from geometric mixing rule
Neighbor list info ...
  update every 20 steps, delay 0 steps, check no
  max neighbors/atom: 2000, page size: 100000
  master list distance cutoff = 2.8
  ghost atom cutoff = 2.8
  binsize = 1.4, bins = 72 72 72
  1 neighbor lists, perpetual/occasional/extra = 1 0 0
  (1) pair lj/cut/intel, perpetual
      attributes: half, newton on, intel
      pair build: half/bin/newton/intel
      stencil: half/bin/3d
      bin: intel
Setting up Verlet run ...
  Unit style    : lj
  Current step  : 0
  Time step     : 0.005
Per MPI rank memory allocation (min/avg/max) = 119.3 | 119.3 | 119.3 Mbytes
Step Temp E_pair E_mol TotEng Press 
       0         1.44   -6.7731918            0   -4.6131943   -5.0196826 
     100   0.75926564   -5.7611846            0   -4.6222875   0.19243239 
Loop time of 0.31961 on 64 procs for 100 steps with 864000 atoms

Performance: 135164.618 tau/day, 312.881 timesteps/s
97.3% CPU use with 64 MPI tasks x 1 OpenMP threads

MPI task timing breakdown:
Section |  min time  |  avg time  |  max time  |%varavg| %total
---------------------------------------------------------------
Pair    | 0.17541    | 0.20227    | 0.22077    |   4.5 | 63.29
Neigh   | 0.016724   | 0.019507   | 0.022144   |   1.6 |  6.10
Comm    | 0.044743   | 0.066756   | 0.10054    |   9.0 | 20.89
Output  | 0.00011063 | 0.00016517 | 0.00027253 |   0.0 |  0.05
Modify  | 0.021038   | 0.024467   | 0.026973   |   0.7 |  7.66
Other   |            | 0.006444   |            |       |  2.02

Nlocal:          13500 ave       13556 max       13419 min
Histogram: 1 5 4 7 6 6 9 12 6 8
Nghost:        11657.2 ave       11733 max       11595 min
Histogram: 5 7 11 8 10 5 2 6 7 3
Neighs:         507028 ave      512837 max      501512 min
Histogram: 3 4 6 11 9 10 9 7 3 2

Total # of neighbors = 32449776
Ave neighs/atom = 37.557611
Neighbor list builds = 5
Dangerous builds not checked
Total wall time: 0:00:00
Intel(R) VTune(TM) Profiler 2022.2.0 collection completed successfully. Use the "aps --report /home/ubuntu/lammps/bench/aps_result_20220601" command to generate textual and HTML reports for the profiling session.
