LAMMPS (7 Jan 2022)
  using 1 OpenMP thread(s) per MPI task
Lattice spacing in x,y,z = 1.6795962 1.6795962 1.6795962
Created orthogonal box = (0 0 0) to (134.3677 134.3677 134.3677)
  2 by 4 by 4 MPI processor grid
Created 2048000 atoms
  using lattice units in orthogonal box = (0 0 0) to (134.3677 134.3677 134.3677)
  create_atoms CPU = 0.017 seconds
----------------------------------------------------------
Using INTEL Package without Coprocessor.
Compiler: Intel Classic C++ 20.21.5 / Intel(R) C++ g++ 9.3 mode
SIMD compiler directives: Enabled
Precision: double
----------------------------------------------------------
  generated 0 of 0 mixed pair_coeff terms from geometric mixing rule
Neighbor list info ...
  update every 20 steps, delay 0 steps, check no
  max neighbors/atom: 2000, page size: 100000
  master list distance cutoff = 2.8
  ghost atom cutoff = 2.8
  binsize = 1.4, bins = 96 96 96
  1 neighbor lists, perpetual/occasional/extra = 1 0 0
  (1) pair lj/cut/intel, perpetual
      attributes: half, newton on, intel
      pair build: half/bin/newton/intel
      stencil: half/bin/3d
      bin: intel
Setting up Verlet run ...
  Unit style    : lj
  Current step  : 0
  Time step     : 0.005
Per MPI rank memory allocation (min/avg/max) = 532.5 | 559.2 | 586.3 Mbytes
Step Temp E_pair E_mol TotEng Press 
       0         1.44   -6.7733681            0   -4.6133691   -5.0196699 
     100   0.75921977   -5.7611315            0   -4.6223024   0.19208802 
Loop time of 3.43649 on 32 procs for 100 steps with 2048000 atoms

Performance: 12570.980 tau/day, 29.099 timesteps/s
79.3% CPU use with 32 MPI tasks x 1 OpenMP threads

MPI task timing breakdown:
Section |  min time  |  avg time  |  max time  |%varavg| %total
---------------------------------------------------------------
Pair    | 0.86082    | 1.053      | 1.7743     |  17.6 | 30.64
Neigh   | 0.082639   | 0.096881   | 0.16274    |   5.6 |  2.82
Comm    | 1.3808     | 2.1444     | 2.3674     |  13.3 | 62.40
Output  | 0.00036416 | 0.017176   | 0.034315   |  11.5 |  0.50
Modify  | 0.087652   | 0.095031   | 0.10239    |   1.4 |  2.77
Other   |            | 0.02994    |            |       |  0.87

Nlocal:          64000 ave       64150 max       63884 min
Histogram: 5 4 0 4 4 4 8 2 0 1
Nghost:          31670 ave       31797 max       31544 min
Histogram: 1 3 3 7 5 2 2 4 2 3
Neighs:    2.40356e+06 ave 2.41588e+06 max  2.3915e+06 min
Histogram: 2 6 1 4 4 2 5 2 2 4

Total # of neighbors = 76914000
Ave neighs/atom = 37.555664
Neighbor list builds = 5
Dangerous builds not checked
Total wall time: 0:00:03
Intel(R) VTune(TM) Profiler 2022.2.0 collection completed successfully. Use the "aps --report /home/ubuntu/lammps/bench/aps_result_20220531" command to generate textual and HTML reports for the profiling session.
