LAMMPS (7 Jan 2022)
  using 1 OpenMP thread(s) per MPI task
Lattice spacing in x,y,z = 1.6795962 1.6795962 1.6795962
Created orthogonal box = (0 0 0) to (134.3677 134.3677 134.3677)
  1 by 2 by 2 MPI processor grid
Created 2048000 atoms
  using lattice units in orthogonal box = (0 0 0) to (134.3677 134.3677 134.3677)
  create_atoms CPU = 0.066 seconds
----------------------------------------------------------
Using INTEL Package without Coprocessor.
Compiler: Intel Classic C++ 20.21.5 / Intel(R) C++ g++ 9.3 mode
SIMD compiler directives: Enabled
Precision: mixed
----------------------------------------------------------
  generated 0 of 0 mixed pair_coeff terms from geometric mixing rule
Neighbor list info ...
  update every 20 steps, delay 0 steps, check no
  max neighbors/atom: 2000, page size: 100000
  master list distance cutoff = 2.8
  ghost atom cutoff = 2.8
  binsize = 1.4, bins = 96 96 96
  1 neighbor lists, perpetual/occasional/extra = 1 0 0
  (1) pair lj/cut/intel, perpetual
      attributes: half, newton on, intel
      pair build: half/bin/newton/intel
      stencil: half/bin/3d
      bin: intel
Setting up Verlet run ...
  Unit style    : lj
  Current step  : 0
  Time step     : 0.005
Per MPI rank memory allocation (min/avg/max) = 4426 | 4426 | 4426 Mbytes
Step Temp E_pair E_mol TotEng Press 
       0         1.44   -6.7733683            0   -4.6133693   -5.0196694 
   10000   0.69759656   -5.6675796            0   -4.6211853   0.74385091 
Loop time of 863.262 on 4 procs for 10000 steps with 2048000 atoms

Performance: 5004.275 tau/day, 11.584 timesteps/s
99.9% CPU use with 4 MPI tasks x 1 OpenMP threads

MPI task timing breakdown:
Section |  min time  |  avg time  |  max time  |%varavg| %total
---------------------------------------------------------------
Pair    | 685.27     | 686.09     | 686.61     |   2.1 | 79.48
Neigh   | 56.976     | 57.088     | 57.234     |   1.2 |  6.61
Comm    | 43.817     | 45.998     | 48.776     |  26.3 |  5.33
Output  | 0.0014433  | 0.0014776  | 0.0015112  |   0.1 |  0.00
Modify  | 61.17      | 62.819     | 64.089     |  13.3 |  7.28
Other   |            | 11.27      |            |       |  1.31

Nlocal:         512000 ave      512095 max      511857 min
Histogram: 1 0 0 0 0 0 1 1 0 1
Nghost:         113915 ave      113973 max      113862 min
Histogram: 2 0 0 0 0 0 0 0 1 1
Neighs:    1.92029e+07 ave 1.92497e+07 max 1.91612e+07 min
Histogram: 1 0 1 0 0 0 1 0 0 1

Total # of neighbors = 76811717
Ave neighs/atom = 37.505721
Neighbor list builds = 500
Dangerous builds not checked
Total wall time: 0:14:23
Intel(R) VTune(TM) Profiler 2022.2.0 collection completed successfully. Use the "aps --report /home/ubuntu/lammps/bench/aps_result_20220702" command to generate textual and HTML reports for the profiling session.
