LAMMPS (7 Jan 2022)
  using 1 OpenMP thread(s) per MPI task
Lattice spacing in x,y,z = 1.6795962 1.6795962 1.6795962
Created orthogonal box = (0 0 0) to (67.183848 67.183848 67.183848)
  1 by 1 by 2 MPI processor grid
Created 256000 atoms
  using lattice units in orthogonal box = (0 0 0) to (67.183848 67.183848 67.183848)
  create_atoms CPU = 0.183 seconds
----------------------------------------------------------
Using INTEL Package without Coprocessor.
Compiler: Intel Classic C++ 20.21.5 / Intel(R) C++ g++ 9.3 mode
SIMD compiler directives: Enabled
Precision: double
----------------------------------------------------------
  generated 0 of 0 mixed pair_coeff terms from geometric mixing rule
Neighbor list info ...
  update every 20 steps, delay 0 steps, check no
  max neighbors/atom: 2000, page size: 100000
  master list distance cutoff = 2.8
  ghost atom cutoff = 2.8
  binsize = 1.4, bins = 48 48 48
  1 neighbor lists, perpetual/occasional/extra = 1 0 0
  (1) pair lj/cut/intel, perpetual
      attributes: half, newton on, intel
      pair build: half/bin/newton/intel
      stencil: half/bin/3d
      bin: intel
Setting up Verlet run ...
  Unit style    : lj
  Current step  : 0
  Time step     : 0.005
Per MPI rank memory allocation (min/avg/max) = 1115 | 1115 | 1115 Mbytes
Step Temp E_pair E_mol TotEng Press 
       0         1.44   -6.7733681            0   -4.6133765    -5.019674 
     100   0.75865617   -5.7603259            0   -4.6223461   0.19586104 
Loop time of 6.05969 on 2 procs for 100 steps with 256000 atoms

Performance: 7129.079 tau/day, 16.502 timesteps/s
45.6% CPU use with 2 MPI tasks x 1 OpenMP threads

MPI task timing breakdown:
Section |  min time  |  avg time  |  max time  |%varavg| %total
---------------------------------------------------------------
Pair    | 2.3773     | 3.1492     | 3.9211     |  43.5 | 51.97
Neigh   | 0.30085    | 0.3108     | 0.32076    |   1.8 |  5.13
Comm    | 1.5453     | 2.2146     | 2.884      |  45.0 | 36.55
Output  | 0.00028449 | 0.00028777 | 0.00029105 |   0.0 |  0.00
Modify  | 0.23611    | 0.3485     | 0.46088    |  19.0 |  5.75
Other   |            | 0.03626    |            |       |  0.60

Nlocal:         128000 ave      128003 max      127997 min
Histogram: 1 0 0 0 0 0 0 0 0 1
Nghost:          49205 ave       49206 max       49204 min
Histogram: 1 0 0 0 0 0 0 0 0 1
Neighs:    4.80697e+06 ave 4.81938e+06 max 4.79455e+06 min
Histogram: 1 0 0 0 0 0 0 0 0 1

Total # of neighbors = 9613937
Ave neighs/atom = 37.554441
Neighbor list builds = 5
Dangerous builds not checked
Total wall time: 0:00:07
Intel(R) VTune(TM) Profiler 2022.2.0 collection completed successfully. Use the "aps --report /home/ubuntu/lammps/bench/aps_result_20220531" command to generate textual and HTML reports for the profiling session.
