LAMMPS (7 Jan 2022)
  using 1 OpenMP thread(s) per MPI task
Lattice spacing in x,y,z = 1.6795962 1.6795962 1.6795962
Created orthogonal box = (0 0 0) to (100.77577 100.77577 100.77577)
  1 by 1 by 2 MPI processor grid
Created 864000 atoms
  using lattice units in orthogonal box = (0 0 0) to (100.77577 100.77577 100.77577)
  create_atoms CPU = 0.068 seconds
----------------------------------------------------------
Using INTEL Package without Coprocessor.
Compiler: Intel Classic C++ 20.21.5 / Intel(R) C++ g++ 9.3 mode
SIMD compiler directives: Enabled
Precision: mixed
----------------------------------------------------------
  generated 0 of 0 mixed pair_coeff terms from geometric mixing rule
Neighbor list info ...
  update every 20 steps, delay 0 steps, check no
  max neighbors/atom: 2000, page size: 100000
  master list distance cutoff = 2.8
  ghost atom cutoff = 2.8
  binsize = 1.4, bins = 72 72 72
  1 neighbor lists, perpetual/occasional/extra = 1 0 0
  (1) pair lj/cut/intel, perpetual
      attributes: half, newton on, intel
      pair build: half/bin/newton/intel
      stencil: half/bin/3d
      bin: intel
Setting up Verlet run ...
  Unit style    : lj
  Current step  : 0
  Time step     : 0.005
Per MPI rank memory allocation (min/avg/max) = 3737 | 3737 | 3737 Mbytes
Step Temp E_pair E_mol TotEng Press 
       0         1.44   -6.7733674            0   -4.6133699   -5.0196712 
     100   0.75926565   -5.7611847            0   -4.6222875   0.19243178 
Loop time of 14.1041 on 2 procs for 100 steps with 864000 atoms

Performance: 3062.929 tau/day, 7.090 timesteps/s
67.9% CPU use with 2 MPI tasks x 1 OpenMP threads

MPI task timing breakdown:
Section |  min time  |  avg time  |  max time  |%varavg| %total
---------------------------------------------------------------
Pair    | 5.8884     | 8.4737     | 11.059     |  88.8 | 60.08
Neigh   | 0.47922    | 0.71086    | 0.9425     |  27.5 |  5.04
Comm    | 0.72221    | 3.9611     | 7.2001     | 162.7 | 28.08
Output  | 0.0011287  | 0.0011364  | 0.0011441  |   0.0 |  0.01
Modify  | 0.45948    | 0.87384    | 1.2882     |  44.3 |  6.20
Other   |            | 0.08345    |            |       |  0.59

Nlocal:         432000 ave      432061 max      431939 min
Histogram: 1 0 0 0 0 0 0 0 0 1
Nghost:         106982 ave      106995 max      106968 min
Histogram: 1 0 0 0 0 0 0 0 0 1
Neighs:    1.62249e+07 ave 1.62488e+07 max 1.62009e+07 min
Histogram: 1 0 0 0 0 0 0 0 0 1

Total # of neighbors = 32449783
Ave neighs/atom = 37.557619
Neighbor list builds = 5
Dangerous builds not checked
Total wall time: 0:00:14
Intel(R) VTune(TM) Profiler 2022.2.0 collection completed successfully. Use the "aps --report /home/ubuntu/lammps/bench/aps_result_20220526" command to generate textual and HTML reports for the profiling session.
