LAMMPS (7 Jan 2022)
  using 1 OpenMP thread(s) per MPI task
Lattice spacing in x,y,z = 1.6795962 1.6795962 1.6795962
Created orthogonal box = (0 0 0) to (67.183848 67.183848 67.183848)
  4 by 4 by 4 MPI processor grid
Created 256000 atoms
  using lattice units in orthogonal box = (0 0 0) to (67.183848 67.183848 67.183848)
  create_atoms CPU = 0.002 seconds
----------------------------------------------------------
Using INTEL Package without Coprocessor.
Compiler: Intel Classic C++ 20.21.5 / Intel(R) C++ g++ 9.3 mode
SIMD compiler directives: Enabled
Precision: single
----------------------------------------------------------
  generated 0 of 0 mixed pair_coeff terms from geometric mixing rule
Neighbor list info ...
  update every 20 steps, delay 0 steps, check no
  max neighbors/atom: 2000, page size: 100000
  master list distance cutoff = 2.8
  ghost atom cutoff = 2.8
  binsize = 1.4, bins = 48 48 48
  1 neighbor lists, perpetual/occasional/extra = 1 0 0
  (1) pair lj/cut/intel, perpetual
      attributes: half, newton on, intel
      pair build: half/bin/newton/intel
      stencil: half/bin/3d
      bin: intel
Setting up Verlet run ...
  Unit style    : lj
  Current step  : 0
  Time step     : 0.005
Per MPI rank memory allocation (min/avg/max) = 32 | 36.8 | 42.11 Mbytes
Step Temp E_pair E_mol TotEng Press 
       0         1.44   -6.7733628            0   -4.6133712   -5.0196746 
     100   0.75865618   -5.7603261            0   -4.6223462   0.19586085 
Loop time of 0.0986946 on 64 procs for 100 steps with 256000 atoms

Performance: 437713.804 tau/day, 1013.226 timesteps/s
96.4% CPU use with 64 MPI tasks x 1 OpenMP threads

MPI task timing breakdown:
Section |  min time  |  avg time  |  max time  |%varavg| %total
---------------------------------------------------------------
Pair    | 0.049261   | 0.058458   | 0.068089   |   2.3 | 59.23
Neigh   | 0.0051295  | 0.0061884  | 0.0069532  |   0.8 |  6.27
Comm    | 0.019408   | 0.03038    | 0.041011   |   3.7 | 30.78
Output  | 5.0841e-05 | 0.00013034 | 0.00027327 |   0.0 |  0.13
Modify  | 0.0023514  | 0.002848   | 0.0033217  |   0.5 |  2.89
Other   |            | 0.0006898  |            |       |  0.70

Nlocal:           4000 ave        4050 max        3951 min
Histogram: 2 4 4 10 12 14 8 6 2 2
Nghost:         5748.7 ave        5795 max        5702 min
Histogram: 2 1 8 13 13 6 6 8 4 3
Neighs:         150218 ave      152936 max      147901 min
Histogram: 5 7 4 10 11 11 4 8 2 2

Total # of neighbors = 9613936
Ave neighs/atom = 37.554437
Neighbor list builds = 5
Dangerous builds not checked
Total wall time: 0:00:00
Intel(R) VTune(TM) Profiler 2022.2.0 collection completed successfully. Use the "aps --report /home/ubuntu/lammps/bench/aps_result_20220601" command to generate textual and HTML reports for the profiling session.
