LAMMPS (7 Jan 2022)
  using 1 OpenMP thread(s) per MPI task
Lattice spacing in x,y,z = 1.6795962 1.6795962 1.6795962
Created orthogonal box = (0 0 0) to (67.183848 67.183848 67.183848)
  1 by 1 by 2 MPI processor grid
Created 256000 atoms
  using lattice units in orthogonal box = (0 0 0) to (67.183848 67.183848 67.183848)
  create_atoms CPU = 0.010 seconds
----------------------------------------------------------
Using INTEL Package without Coprocessor.
Compiler: Intel Classic C++ 20.21.5 / Intel(R) C++ g++ 9.3 mode
SIMD compiler directives: Enabled
Precision: single
----------------------------------------------------------
  generated 0 of 0 mixed pair_coeff terms from geometric mixing rule
Neighbor list info ...
  update every 20 steps, delay 0 steps, check no
  max neighbors/atom: 2000, page size: 100000
  master list distance cutoff = 2.8
  ghost atom cutoff = 2.8
  binsize = 1.4, bins = 48 48 48
  1 neighbor lists, perpetual/occasional/extra = 1 0 0
  (1) pair lj/cut/intel, perpetual
      attributes: half, newton on, intel
      pair build: half/bin/newton/intel
      stencil: half/bin/3d
      bin: intel
Setting up Verlet run ...
  Unit style    : lj
  Current step  : 0
  Time step     : 0.005
Per MPI rank memory allocation (min/avg/max) = 1109 | 1109 | 1109 Mbytes
Step Temp E_pair E_mol TotEng Press 
       0         1.44   -6.7741831            0   -4.6141915    -5.019688 
     100   0.75865621   -5.7603203            0   -4.6223404   0.19585808 
Loop time of 4.41767 on 2 procs for 100 steps with 256000 atoms

Performance: 9778.900 tau/day, 22.636 timesteps/s
47.8% CPU use with 2 MPI tasks x 1 OpenMP threads

MPI task timing breakdown:
Section |  min time  |  avg time  |  max time  |%varavg| %total
---------------------------------------------------------------
Pair    | 3.0101     | 3.062      | 3.1138     |   3.0 | 69.31
Neigh   | 0.24372    | 0.27152    | 0.29931    |   5.3 |  6.15
Comm    | 0.75738    | 0.8475     | 0.93762    |   9.8 | 19.18
Output  | 0.00026332 | 0.00026958 | 0.00027584 |   0.0 |  0.01
Modify  | 0.20582    | 0.20826    | 0.21071    |   0.5 |  4.71
Other   |            | 0.02815    |            |       |  0.64

Nlocal:         128000 ave      128003 max      127997 min
Histogram: 1 0 0 0 0 0 0 0 0 1
Nghost:          49205 ave       49206 max       49204 min
Histogram: 1 0 0 0 0 0 0 0 0 1
Neighs:    4.80697e+06 ave 4.81938e+06 max 4.79456e+06 min
Histogram: 1 0 0 0 0 0 0 0 0 1

Total # of neighbors = 9613935
Ave neighs/atom = 37.554434
Neighbor list builds = 5
Dangerous builds not checked
Total wall time: 0:00:04
Intel(R) VTune(TM) Profiler 2022.2.0 collection completed successfully. Use the "aps --report /home/ubuntu/lammps/bench/aps_result_20220531" command to generate textual and HTML reports for the profiling session.
