LAMMPS (7 Jan 2022)
  using 1 OpenMP thread(s) per MPI task
Lattice spacing in x,y,z = 1.6795962 1.6795962 1.6795962
Created orthogonal box = (0 0 0) to (100.77577 100.77577 100.77577)
  2 by 2 by 2 MPI processor grid
Created 864000 atoms
  using lattice units in orthogonal box = (0 0 0) to (100.77577 100.77577 100.77577)
  create_atoms CPU = 0.025 seconds
----------------------------------------------------------
Using INTEL Package without Coprocessor.
Compiler: Intel Classic C++ 20.21.5 / Intel(R) C++ g++ 9.3 mode
SIMD compiler directives: Enabled
Precision: single
----------------------------------------------------------
  generated 0 of 0 mixed pair_coeff terms from geometric mixing rule
Neighbor list info ...
  update every 20 steps, delay 0 steps, check no
  max neighbors/atom: 2000, page size: 100000
  master list distance cutoff = 2.8
  ghost atom cutoff = 2.8
  binsize = 1.4, bins = 72 72 72
  1 neighbor lists, perpetual/occasional/extra = 1 0 0
  (1) pair lj/cut/intel, perpetual
      attributes: half, newton on, intel
      pair build: half/bin/newton/intel
      stencil: half/bin/3d
      bin: intel
Setting up Verlet run ...
  Unit style    : lj
  Current step  : 0
  Time step     : 0.005
Per MPI rank memory allocation (min/avg/max) = 936.2 | 936.2 | 936.2 Mbytes
Step Temp E_pair E_mol TotEng Press 
       0         1.44   -6.7735886            0   -4.6135911   -5.0196807 
     100   0.75926565   -5.7611698            0   -4.6222727   0.19243002 
Loop time of 2.31162 on 8 procs for 100 steps with 864000 atoms

Performance: 18688.187 tau/day, 43.260 timesteps/s
98.6% CPU use with 8 MPI tasks x 1 OpenMP threads

MPI task timing breakdown:
Section |  min time  |  avg time  |  max time  |%varavg| %total
---------------------------------------------------------------
Pair    | 1.6166     | 1.6712     | 1.7466     |   3.6 | 72.29
Neigh   | 0.14319    | 0.14804    | 0.15558    |   1.0 |  6.40
Comm    | 0.19186    | 0.28999    | 0.35006    |   9.7 | 12.55
Output  | 0.00030729 | 0.00032682 | 0.00034084 |   0.0 |  0.01
Modify  | 0.16044    | 0.16951    | 0.18202    |   2.2 |  7.33
Other   |            | 0.03258    |            |       |  1.41

Nlocal:         108000 ave      108104 max      107935 min
Histogram: 3 2 0 0 0 0 0 0 2 1
Nghost:        41825.9 ave       41909 max       41715 min
Histogram: 1 1 1 0 0 0 0 2 2 1
Neighs:    4.05622e+06 ave 4.07172e+06 max 4.04305e+06 min
Histogram: 1 0 1 1 3 0 0 1 0 1

Total # of neighbors = 32449778
Ave neighs/atom = 37.557613
Neighbor list builds = 5
Dangerous builds not checked
Total wall time: 0:00:02
Intel(R) VTune(TM) Profiler 2022.2.0 collection completed successfully. Use the "aps --report /home/ubuntu/lammps/bench/aps_result_20220601" command to generate textual and HTML reports for the profiling session.
