LAMMPS (7 Jan 2022)
  using 1 OpenMP thread(s) per MPI task
Lattice spacing in x,y,z = 1.6795962 1.6795962 1.6795962
Created orthogonal box = (0 0 0) to (100.77577 100.77577 100.77577)
  2 by 4 by 4 MPI processor grid
Created 864000 atoms
  using lattice units in orthogonal box = (0 0 0) to (100.77577 100.77577 100.77577)
  create_atoms CPU = 0.009 seconds
----------------------------------------------------------
Using INTEL Package without Coprocessor.
Compiler: Intel Classic C++ 20.21.5 / Intel(R) C++ g++ 9.3 mode
SIMD compiler directives: Enabled
Precision: mixed
----------------------------------------------------------
  generated 0 of 0 mixed pair_coeff terms from geometric mixing rule
Neighbor list info ...
  update every 20 steps, delay 0 steps, check no
  max neighbors/atom: 2000, page size: 100000
  master list distance cutoff = 2.8
  ghost atom cutoff = 2.8
  binsize = 1.4, bins = 72 72 72
  1 neighbor lists, perpetual/occasional/extra = 1 0 0
  (1) pair lj/cut/intel, perpetual
      attributes: half, newton on, intel
      pair build: half/bin/newton/intel
      stencil: half/bin/3d
      bin: intel
Setting up Verlet run ...
  Unit style    : lj
  Current step  : 0
  Time step     : 0.005
Per MPI rank memory allocation (min/avg/max) = 236.8 | 236.8 | 236.8 Mbytes
Step Temp E_pair E_mol TotEng Press 
       0         1.44   -6.7733674            0   -4.6133699   -5.0196712 
   10000   0.69716455   -5.6668683            0   -4.6211227   0.74775734 
Loop time of 54.0438 on 32 procs for 10000 steps with 864000 atoms

Performance: 79935.217 tau/day, 185.035 timesteps/s
99.3% CPU use with 32 MPI tasks x 1 OpenMP threads

MPI task timing breakdown:
Section |  min time  |  avg time  |  max time  |%varavg| %total
---------------------------------------------------------------
Pair    | 38.454     | 39.399     | 39.889     |   4.4 | 72.90
Neigh   | 3.3221     | 3.3763     | 3.4551     |   1.7 |  6.25
Comm    | 5.1437     | 5.9173     | 7.0995     |  16.2 | 10.95
Output  | 0.00012696 | 0.00015959 | 0.00020497 |   0.0 |  0.00
Modify  | 4.1318     | 4.3921     | 4.6072     |   5.7 |  8.13
Other   |            | 0.9587     |            |       |  1.77

Nlocal:          27000 ave       27074 max       26922 min
Histogram: 2 0 6 5 3 4 2 6 1 3
Nghost:        17813.1 ave       17901 max       17736 min
Histogram: 2 6 1 3 5 7 1 3 2 2
Neighs:    1.01263e+06 ave 1.02002e+06 max 1.00202e+06 min
Histogram: 1 2 0 1 5 8 6 4 2 3

Total # of neighbors = 32404037
Ave neighs/atom = 37.504672
Neighbor list builds = 500
Dangerous builds not checked
Total wall time: 0:00:54
Intel(R) VTune(TM) Profiler 2022.2.0 collection completed successfully. Use the "aps --report /home/ubuntu/lammps/bench/aps_result_20220702" command to generate textual and HTML reports for the profiling session.
