LAMMPS (7 Jan 2022)
  using 1 OpenMP thread(s) per MPI task
New timer settings: style=full  mode=nosync  timeout=off
Lattice spacing in x,y,z = 1.6795962 1.6795962 1.6795962
Created orthogonal box = (0 0 0) to (100.77577 100.77577 100.77577)
  2 by 2 by 4 MPI processor grid
Created 864000 atoms
  using lattice units in orthogonal box = (0 0 0) to (100.77577 100.77577 100.77577)
  create_atoms CPU = 0.015 seconds
----------------------------------------------------------
Using INTEL Package without Coprocessor.
Compiler: Intel Classic C++ 20.21.5 / Intel(R) C++ g++ 9.3 mode
SIMD compiler directives: Enabled
Precision: mixed
----------------------------------------------------------
  generated 0 of 0 mixed pair_coeff terms from geometric mixing rule
Neighbor list info ...
  update every 20 steps, delay 0 steps, check no
  max neighbors/atom: 2000, page size: 100000
  master list distance cutoff = 2.8
  ghost atom cutoff = 2.8
  binsize = 1.4, bins = 72 72 72
  1 neighbor lists, perpetual/occasional/extra = 1 0 0
  (1) pair lj/cut/intel, perpetual
      attributes: half, newton on, intel
      pair build: half/bin/newton/intel
      stencil: half/bin/3d
      bin: intel
Setting up Verlet run ...
  Unit style    : lj
  Current step  : 0
  Time step     : 0.005
Per MPI rank memory allocation (min/avg/max) = 472.6 | 472.7 | 472.7 Mbytes
Step Temp E_pair E_mol TotEng Press 
       0         1.44   -6.7733674            0   -4.6133699   -5.0196712 
     100   0.75926565   -5.7611847            0   -4.6222875   0.19243178 
Loop time of 1.26558 on 16 procs for 100 steps with 864000 atoms

Performance: 34134.445 tau/day, 79.015 timesteps/s
99.1% CPU use with 16 MPI tasks x 1 OpenMP threads

MPI task timing breakdown:
Section |  min time  |  avg time  |  max time  |%varavg|  %CPU | %total
-----------------------------------------------------------------------
Pair    | 0.94828    | 0.95459    | 0.96136    |   0.4 |  99.4 | 75.43
Neigh   | 0.079163   | 0.080549   | 0.084469   |   0.5 |  99.8 |  6.36
Comm    | 0.10634    | 0.12142    | 0.13253    |   2.2 |  97.3 |  9.59
Output  | 0.00026605 | 0.0003956  | 0.00070868 |   0.0 | 100.0 |  0.03
Modify  | 0.086696   | 0.091144   | 0.096156   |   0.9 |  98.5 |  7.20
Other   |            | 0.01748    |            |       |       |  1.38

Nlocal:          54000 ave       54091 max       53909 min
Histogram: 1 0 3 1 4 2 2 0 1 2
Nghost:        28658.2 ave       28718 max       28563 min
Histogram: 1 1 1 2 0 2 2 1 1 5
Neighs:    2.02811e+06 ave 2.04227e+06 max   2.015e+06 min
Histogram: 1 2 3 0 2 2 1 3 1 1

Total # of neighbors = 32449783
Ave neighs/atom = 37.557619
Neighbor list builds = 5
Dangerous builds not checked
Total wall time: 0:00:01
Intel(R) VTune(TM) Profiler 2022.2.0 collection completed successfully. Use the "aps --report /home/ubuntu/lammps/bench/aps_result_20220519" command to generate textual and HTML reports for the profiling session.
