LAMMPS (7 Jan 2022)
  using 1 OpenMP thread(s) per MPI task
New timer settings: style=full  mode=nosync  timeout=off
Lattice spacing in x,y,z = 1.6795962 1.6795962 1.6795962
Created orthogonal box = (0 0 0) to (67.183848 67.183848 67.183848)
  2 by 4 by 4 MPI processor grid
Created 256000 atoms
  using lattice units in orthogonal box = (0 0 0) to (67.183848 67.183848 67.183848)
  create_atoms CPU = 0.004 seconds
----------------------------------------------------------
Using INTEL Package without Coprocessor.
Compiler: Intel Classic C++ 20.21.5 / Intel(R) C++ g++ 9.3 mode
SIMD compiler directives: Enabled
Precision: mixed
----------------------------------------------------------
  generated 0 of 0 mixed pair_coeff terms from geometric mixing rule
Neighbor list info ...
  update every 20 steps, delay 0 steps, check no
  max neighbors/atom: 2000, page size: 100000
  master list distance cutoff = 2.8
  ghost atom cutoff = 2.8
  binsize = 1.4, bins = 48 48 48
  1 neighbor lists, perpetual/occasional/extra = 1 0 0
  (1) pair lj/cut/intel, perpetual
      attributes: half, newton on, intel
      pair build: half/bin/newton/intel
      stencil: half/bin/3d
      bin: intel
Setting up Verlet run ...
  Unit style    : lj
  Current step  : 0
  Time step     : 0.005
Per MPI rank memory allocation (min/avg/max) = 66.29 | 72.9 | 79.76 Mbytes
Step Temp E_pair E_mol TotEng Press 
       0         1.44   -6.7733683            0   -4.6133767   -5.0196736 
     100   0.75865619   -5.7603259            0    -4.622346   0.19586098 
Loop time of 0.209771 on 32 procs for 100 steps with 256000 atoms

Performance: 205938.497 tau/day, 476.709 timesteps/s
96.6% CPU use with 32 MPI tasks x 1 OpenMP threads

MPI task timing breakdown:
Section |  min time  |  avg time  |  max time  |%varavg|  %CPU | %total
-----------------------------------------------------------------------
Pair    | 0.13682    | 0.1395     | 0.14265    |   0.4 |  96.9 | 66.50
Neigh   | 0.012918   | 0.013154   | 0.013763   |   0.2 |  97.8 |  6.27
Comm    | 0.037197   | 0.041611   | 0.046143   |   1.2 |  95.1 | 19.84
Output  | 0.00010619 | 0.0001268  | 0.00018033 |   0.0 | 100.0 |  0.06
Modify  | 0.010792   | 0.012677   | 0.014615   |   1.0 |  97.5 |  6.04
Other   |            | 0.0027     |            |       |       |  1.29

Nlocal:           8000 ave        8078 max        7951 min
Histogram: 4 6 5 3 4 2 4 2 1 1
Nghost:        8995.78 ave        9049 max        8932 min
Histogram: 2 2 4 2 5 2 3 5 4 3
Neighs:         300436 ave      305104 max      297255 min
Histogram: 4 2 7 3 1 11 2 0 0 2

Total # of neighbors = 9613939
Ave neighs/atom = 37.554449
Neighbor list builds = 5
Dangerous builds not checked
Total wall time: 0:00:00
Intel(R) VTune(TM) Profiler 2022.2.0 collection completed successfully. Use the "aps --report /home/ubuntu/lammps/bench/aps_result_20220519" command to generate textual and HTML reports for the profiling session.
