LAMMPS (7 Jan 2022)
  using 1 OpenMP thread(s) per MPI task
Lattice spacing in x,y,z = 1.6795962 1.6795962 1.6795962
Created orthogonal box = (0 0 0) to (100.77577 100.77577 100.77577)
  2 by 4 by 4 MPI processor grid
Created 864000 atoms
  using lattice units in orthogonal box = (0 0 0) to (100.77577 100.77577 100.77577)
  create_atoms CPU = 0.007 seconds
----------------------------------------------------------
Using INTEL Package without Coprocessor.
Compiler: Intel Classic C++ 20.21.5 / Intel(R) C++ g++ 9.3 mode
SIMD compiler directives: Enabled
Precision: single
----------------------------------------------------------
  generated 0 of 0 mixed pair_coeff terms from geometric mixing rule
Neighbor list info ...
  update every 20 steps, delay 0 steps, check no
  max neighbors/atom: 2000, page size: 100000
  master list distance cutoff = 2.8
  ghost atom cutoff = 2.8
  binsize = 1.4, bins = 72 72 72
  1 neighbor lists, perpetual/occasional/extra = 1 0 0
  (1) pair lj/cut/intel, perpetual
      attributes: half, newton on, intel
      pair build: half/bin/newton/intel
      stencil: half/bin/3d
      bin: intel
Setting up Verlet run ...
  Unit style    : lj
  Current step  : 0
  Time step     : 0.005
Per MPI rank memory allocation (min/avg/max) = 236 | 236 | 236 Mbytes
Step Temp E_pair E_mol TotEng Press 
       0         1.44   -6.7729428            0   -4.6129453   -5.0196837 
     100   0.75926565   -5.7611865            0   -4.6222893   0.19243197 
Loop time of 2.6 on 32 procs for 100 steps with 864000 atoms

Performance: 16615.398 tau/day, 38.462 timesteps/s
74.0% CPU use with 32 MPI tasks x 1 OpenMP threads

MPI task timing breakdown:
Section |  min time  |  avg time  |  max time  |%varavg| %total
---------------------------------------------------------------
Pair    | 0.34866    | 0.41159    | 0.53559    |   6.2 | 15.83
Neigh   | 0.032887   | 0.038434   | 0.064938   |   2.8 |  1.48
Comm    | 1.7708     | 2.084      | 2.1644     |   5.1 | 80.15
Output  | 0.00014108 | 0.015397   | 0.018708   |   3.2 |  0.59
Modify  | 0.02956    | 0.04154    | 0.2211     |  19.1 |  1.60
Other   |            | 0.009042   |            |       |  0.35

Nlocal:          27000 ave       27089 max       26905 min
Histogram: 2 2 4 3 2 5 5 6 1 2
Nghost:        18602.4 ave       18715 max       18510 min
Histogram: 2 3 5 5 4 5 1 4 1 2
Neighs:    1.01406e+06 ave 1.02313e+06 max 1.00526e+06 min
Histogram: 1 2 6 4 4 4 4 4 1 2

Total # of neighbors = 32449777
Ave neighs/atom = 37.557612
Neighbor list builds = 5
Dangerous builds not checked
Total wall time: 0:00:03
Intel(R) VTune(TM) Profiler 2022.2.0 collection completed successfully. Use the "aps --report /home/ubuntu/lammps/bench/aps_result_20220531" command to generate textual and HTML reports for the profiling session.
