LAMMPS (7 Jan 2022)
  using 1 OpenMP thread(s) per MPI task
Lattice spacing in x,y,z = 1.6795962 1.6795962 1.6795962
Created orthogonal box = (0 0 0) to (33.591924 33.591924 33.591924)
  1 by 2 by 2 MPI processor grid
Created 32000 atoms
  using lattice units in orthogonal box = (0 0 0) to (33.591924 33.591924 33.591924)
  create_atoms CPU = 0.003 seconds
----------------------------------------------------------
Using INTEL Package without Coprocessor.
Compiler: Intel Classic C++ 20.21.5 / Intel(R) C++ g++ 9.3 mode
SIMD compiler directives: Enabled
Precision: mixed
----------------------------------------------------------
  generated 0 of 0 mixed pair_coeff terms from geometric mixing rule
Neighbor list info ...
  update every 20 steps, delay 0 steps, check no
  max neighbors/atom: 2000, page size: 100000
  master list distance cutoff = 2.8
  ghost atom cutoff = 2.8
  binsize = 1.4, bins = 24 24 24
  1 neighbor lists, perpetual/occasional/extra = 1 0 0
  (1) pair lj/cut/intel, perpetual
      attributes: half, newton on, intel
      pair build: half/bin/newton/intel
      stencil: half/bin/3d
      bin: intel
Setting up Verlet run ...
  Unit style    : lj
  Current step  : 0
  Time step     : 0.005
Per MPI rank memory allocation (min/avg/max) = 72.89 | 72.89 | 72.89 Mbytes
Step Temp E_pair E_mol TotEng Press 
       0         1.44   -6.7733683            0   -4.6134358    -5.019707 
   10000   0.69496839   -5.6636009            0   -4.6211809   0.75923276 
Loop time of 13.5446 on 4 procs for 10000 steps with 32000 atoms

Performance: 318945.957 tau/day, 738.301 timesteps/s
99.5% CPU use with 4 MPI tasks x 1 OpenMP threads

MPI task timing breakdown:
Section |  min time  |  avg time  |  max time  |%varavg| %total
---------------------------------------------------------------
Pair    | 10.402     | 10.473     | 10.545     |   1.6 | 77.32
Neigh   | 1.0132     | 1.0293     | 1.0731     |   2.5 |  7.60
Comm    | 1.3691     | 1.4061     | 1.4349     |   2.0 | 10.38
Output  | 3.8349e-05 | 4.1542e-05 | 4.6621e-05 |   0.0 |  0.00
Modify  | 0.49173    | 0.5089     | 0.53251    |   2.1 |  3.76
Other   |            | 0.1269     |            |       |  0.94

Nlocal:           8000 ave        8036 max        7952 min
Histogram: 1 0 0 0 0 1 1 0 0 1
Nghost:           8567 ave        8595 max        8530 min
Histogram: 1 0 0 0 0 1 0 1 0 1
Neighs:         300077 ave      303298 max      297259 min
Histogram: 1 1 0 0 0 0 1 0 0 1

Total # of neighbors = 1200308
Ave neighs/atom = 37.509625
Neighbor list builds = 500
Dangerous builds not checked
Total wall time: 0:00:13
Intel(R) VTune(TM) Profiler 2022.2.0 collection completed successfully. Use the "aps --report /home/ubuntu/lammps/bench/aps_result_20220702" command to generate textual and HTML reports for the profiling session.
