LAMMPS (7 Jan 2022)
  using 1 OpenMP thread(s) per MPI task
Lattice spacing in x,y,z = 1.6795962 1.6795962 1.6795962
Created orthogonal box = (0 0 0) to (134.3677 134.3677 134.3677)
  2 by 2 by 2 MPI processor grid
Created 2048000 atoms
  using lattice units in orthogonal box = (0 0 0) to (134.3677 134.3677 134.3677)
  create_atoms CPU = 0.041 seconds
----------------------------------------------------------
Using INTEL Package without Coprocessor.
Compiler: Intel Classic C++ 20.21.5 / Intel(R) C++ g++ 9.3 mode
SIMD compiler directives: Enabled
Precision: mixed
----------------------------------------------------------
  generated 0 of 0 mixed pair_coeff terms from geometric mixing rule
Neighbor list info ...
  update every 20 steps, delay 0 steps, check no
  max neighbors/atom: 2000, page size: 100000
  master list distance cutoff = 2.8
  ghost atom cutoff = 2.8
  binsize = 1.4, bins = 96 96 96
  1 neighbor lists, perpetual/occasional/extra = 1 0 0
  (1) pair lj/cut/intel, perpetual
      attributes: half, newton on, intel
      pair build: half/bin/newton/intel
      stencil: half/bin/3d
      bin: intel
Setting up Verlet run ...
  Unit style    : lj
  Current step  : 0
  Time step     : 0.005
Per MPI rank memory allocation (min/avg/max) = 2217 | 2217 | 2217 Mbytes
Step Temp E_pair E_mol TotEng Press 
       0         1.44   -6.7733683            0   -4.6133693   -5.0196694 
   10000   0.69705424   -5.6667134            0   -4.6211326    0.7489308 
Loop time of 448.836 on 8 procs for 10000 steps with 2048000 atoms

Performance: 9624.903 tau/day, 22.280 timesteps/s
99.7% CPU use with 8 MPI tasks x 1 OpenMP threads

MPI task timing breakdown:
Section |  min time  |  avg time  |  max time  |%varavg| %total
---------------------------------------------------------------
Pair    | 348.69     | 349.36     | 349.96     |   2.3 | 77.84
Neigh   | 28.721     | 28.974     | 30.193     |   8.7 |  6.46
Comm    | 28.742     | 30.609     | 32.348     |  24.0 |  6.82
Output  | 0.00077046 | 0.00082109 | 0.00087016 |   0.0 |  0.00
Modify  | 32.678     | 33.517     | 34.619     |  12.4 |  7.47
Other   |            | 6.378      |            |       |  1.42

Nlocal:         256000 ave      256108 max      255874 min
Histogram: 2 0 1 0 1 0 0 0 3 1
Nghost:        69517.4 ave       69605 max       69429 min
Histogram: 1 0 1 3 0 0 0 1 0 2
Neighs:    9.60131e+06 ave 9.62851e+06 max 9.56928e+06 min
Histogram: 1 0 1 0 2 0 1 2 0 1

Total # of neighbors = 76810463
Ave neighs/atom = 37.505109
Neighbor list builds = 500
Dangerous builds not checked
Total wall time: 0:07:29
Intel(R) VTune(TM) Profiler 2022.2.0 collection completed successfully. Use the "aps --report /home/ubuntu/lammps/bench/aps_result_20220702" command to generate textual and HTML reports for the profiling session.
