LAMMPS (7 Jan 2022)
  using 1 OpenMP thread(s) per MPI task
New timer settings: style=full  mode=nosync  timeout=off
Lattice spacing in x,y,z = 1.6795962 1.6795962 1.6795962
Created orthogonal box = (0 0 0) to (100.77577 100.77577 100.77577)
  1 by 2 by 2 MPI processor grid
Created 864000 atoms
  using lattice units in orthogonal box = (0 0 0) to (100.77577 100.77577 100.77577)
  create_atoms CPU = 0.036 seconds
----------------------------------------------------------
Using INTEL Package without Coprocessor.
Compiler: Intel Classic C++ 20.21.5 / Intel(R) C++ g++ 9.3 mode
SIMD compiler directives: Enabled
Precision: mixed
----------------------------------------------------------
  generated 0 of 0 mixed pair_coeff terms from geometric mixing rule
Neighbor list info ...
  update every 20 steps, delay 0 steps, check no
  max neighbors/atom: 2000, page size: 100000
  master list distance cutoff = 2.8
  ghost atom cutoff = 2.8
  binsize = 1.4, bins = 72 72 72
  1 neighbor lists, perpetual/occasional/extra = 1 0 0
  (1) pair lj/cut/intel, perpetual
      attributes: half, newton on, intel
      pair build: half/bin/newton/intel
      stencil: half/bin/3d
      bin: intel
Setting up Verlet run ...
  Unit style    : lj
  Current step  : 0
  Time step     : 0.005
Per MPI rank memory allocation (min/avg/max) = 1872 | 1872 | 1872 Mbytes
Step Temp E_pair E_mol TotEng Press 
       0         1.44   -6.7733674            0   -4.6133699   -5.0196712 
     100   0.75926565   -5.7611847            0   -4.6222875   0.19243178 
Loop time of 4.36855 on 4 procs for 100 steps with 864000 atoms

Performance: 9888.862 tau/day, 22.891 timesteps/s
98.6% CPU use with 4 MPI tasks x 1 OpenMP threads

MPI task timing breakdown:
Section |  min time  |  avg time  |  max time  |%varavg|  %CPU | %total
-----------------------------------------------------------------------
Pair    | 3.2546     | 3.3165     | 3.4173     |   3.4 |  99.4 | 75.92
Neigh   | 0.27125    | 0.27629    | 0.2815     |   0.9 |  99.5 |  6.32
Comm    | 0.26064    | 0.39008    | 0.48205    |  13.7 |  92.2 |  8.93
Output  | 0.00059129 | 0.000602   | 0.00062223 |   0.0 | 100.0 |  0.01
Modify  | 0.30738    | 0.3291     | 0.34978    |   3.2 |  98.0 |  7.53
Other   |            | 0.05594    |            |       |       |  1.28

Nlocal:         216000 ave      216065 max      215874 min
Histogram: 1 0 0 0 0 0 0 1 1 1
Nghost:        68177.5 ave       68283 max       68103 min
Histogram: 1 0 1 0 1 0 0 0 0 1
Neighs:    8.11245e+06 ave 8.13508e+06 max 8.09529e+06 min
Histogram: 1 0 1 0 1 0 0 0 0 1

Total # of neighbors = 32449783
Ave neighs/atom = 37.557619
Neighbor list builds = 5
Dangerous builds not checked
Total wall time: 0:00:04
Intel(R) VTune(TM) Profiler 2022.2.0 collection completed successfully. Use the "aps --report /home/ubuntu/lammps/bench/aps_result_20220519" command to generate textual and HTML reports for the profiling session.
