LAMMPS (7 Jan 2022)
  using 1 OpenMP thread(s) per MPI task
Lattice spacing in x,y,z = 1.6795962 1.6795962 1.6795962
Created orthogonal box = (0 0 0) to (134.3677 134.3677 134.3677)
  4 by 4 by 4 MPI processor grid
Created 2048000 atoms
  using lattice units in orthogonal box = (0 0 0) to (134.3677 134.3677 134.3677)
  create_atoms CPU = 0.006 seconds
----------------------------------------------------------
Using INTEL Package without Coprocessor.
Compiler: Intel Classic C++ 20.21.5 / Intel(R) C++ g++ 9.3 mode
SIMD compiler directives: Enabled
Precision: mixed
----------------------------------------------------------
  generated 0 of 0 mixed pair_coeff terms from geometric mixing rule
Neighbor list info ...
  update every 20 steps, delay 0 steps, check no
  max neighbors/atom: 2000, page size: 100000
  master list distance cutoff = 2.8
  ghost atom cutoff = 2.8
  binsize = 1.4, bins = 96 96 96
  1 neighbor lists, perpetual/occasional/extra = 1 0 0
  (1) pair lj/cut/intel, perpetual
      attributes: half, newton on, intel
      pair build: half/bin/newton/intel
      stencil: half/bin/3d
      bin: intel
Setting up Verlet run ...
  Unit style    : lj
  Current step  : 0
  Time step     : 0.005
Per MPI rank memory allocation (min/avg/max) = 261 | 281.2 | 301.8 Mbytes
Step Temp E_pair E_mol TotEng Press 
       0         1.44   -6.7733683            0   -4.6133693   -5.0196694 
     100   0.75921979   -5.7611316            0   -4.6223025   0.19208794 
Loop time of 1.6894 on 64 procs for 100 steps with 2048000 atoms

Performance: 25571.246 tau/day, 59.193 timesteps/s
83.6% CPU use with 64 MPI tasks x 1 OpenMP threads

MPI task timing breakdown:
Section |  min time  |  avg time  |  max time  |%varavg| %total
---------------------------------------------------------------
Pair    | 0.51613    | 0.58276    | 0.85872    |   8.3 | 34.50
Neigh   | 0.039573   | 0.045981   | 0.072836   |   2.7 |  2.72
Comm    | 0.48485    | 0.94674    | 1.0332     |   8.5 | 56.04
Output  | 0.00027226 | 0.0078779  | 0.013638   |   7.3 |  0.47
Modify  | 0.072868   | 0.086977   | 0.23912    |   6.7 |  5.15
Other   |            | 0.01906    |            |       |  1.13

Nlocal:          32000 ave       32113 max       31893 min
Histogram: 3 4 5 10 13 11 4 8 4 2
Nghost:        19642.1 ave       19761 max       19537 min
Histogram: 3 4 11 4 13 12 7 5 3 2
Neighs:    1.20178e+06 ave 1.20971e+06 max 1.19347e+06 min
Histogram: 2 5 8 9 8 9 4 9 8 2

Total # of neighbors = 76914004
Ave neighs/atom = 37.555666
Neighbor list builds = 5
Dangerous builds not checked
Total wall time: 0:00:01
Intel(R) VTune(TM) Profiler 2022.2.0 collection completed successfully. Use the "aps --report /home/ubuntu/lammps/bench/aps_result_20220526" command to generate textual and HTML reports for the profiling session.
