LAMMPS (7 Jan 2022)
  using 1 OpenMP thread(s) per MPI task
Lattice spacing in x,y,z = 1.6795962 1.6795962 1.6795962
Created orthogonal box = (0 0 0) to (33.591924 33.591924 33.591924)
  1 by 2 by 2 MPI processor grid
Created 32000 atoms
  using lattice units in orthogonal box = (0 0 0) to (33.591924 33.591924 33.591924)
  create_atoms CPU = 0.003 seconds
----------------------------------------------------------
Using INTEL Package without Coprocessor.
Compiler: Intel Classic C++ 20.21.5 / Intel(R) C++ g++ 9.3 mode
SIMD compiler directives: Enabled
Precision: mixed
----------------------------------------------------------
  generated 0 of 0 mixed pair_coeff terms from geometric mixing rule
Neighbor list info ...
  update every 20 steps, delay 0 steps, check no
  max neighbors/atom: 2000, page size: 100000
  master list distance cutoff = 2.8
  ghost atom cutoff = 2.8
  binsize = 1.4, bins = 24 24 24
  1 neighbor lists, perpetual/occasional/extra = 1 0 0
  (1) pair lj/cut/intel, perpetual
      attributes: half, newton on, intel
      pair build: half/bin/newton/intel
      stencil: half/bin/3d
      bin: intel
Setting up Verlet run ...
  Unit style    : lj
  Current step  : 0
  Time step     : 0.005
Per MPI rank memory allocation (min/avg/max) = 72.89 | 72.89 | 72.89 Mbytes
Step Temp E_pair E_mol TotEng Press 
       0         1.44   -6.7733683            0   -4.6134358    -5.019707 
     100   0.75745333   -5.7585066            0   -4.6223621   0.20725895 
Loop time of 0.324319 on 4 procs for 100 steps with 32000 atoms

Performance: 133202.057 tau/day, 308.338 timesteps/s
76.0% CPU use with 4 MPI tasks x 1 OpenMP threads

MPI task timing breakdown:
Section |  min time  |  avg time  |  max time  |%varavg| %total
---------------------------------------------------------------
Pair    | 0.12927    | 0.15538    | 0.23       |  10.9 | 47.91
Neigh   | 0.010023   | 0.012042   | 0.012899   |   1.1 |  3.71
Comm    | 0.078135   | 0.14997    | 0.17538    |  10.7 | 46.24
Output  | 3.3561e-05 | 4.0486e-05 | 4.877e-05  |   0.0 |  0.01
Modify  | 0.0048491  | 0.0054714  | 0.0058511  |   0.5 |  1.69
Other   |            | 0.001419   |            |       |  0.44

Nlocal:           8000 ave        8037 max        7964 min
Histogram: 2 0 0 0 0 0 0 0 1 1
Nghost:         9007.5 ave        9050 max        8968 min
Histogram: 1 1 0 0 0 0 0 1 0 1
Neighs:         300709 ave      305114 max      297203 min
Histogram: 1 0 0 1 1 0 0 0 0 1

Total # of neighbors = 1202835
Ave neighs/atom = 37.588594
Neighbor list builds = 5
Dangerous builds not checked
Total wall time: 0:00:00
Intel(R) VTune(TM) Profiler 2022.2.0 collection completed successfully. Use the "aps --report /home/ubuntu/lammps/bench/aps_result_20220526" command to generate textual and HTML reports for the profiling session.
