LAMMPS (7 Jan 2022)
  using 1 OpenMP thread(s) per MPI task
Lattice spacing in x,y,z = 1.6795962 1.6795962 1.6795962
Created orthogonal box = (0 0 0) to (100.77577 100.77577 100.77577)
  2 by 2 by 4 MPI processor grid
Created 864000 atoms
  using lattice units in orthogonal box = (0 0 0) to (100.77577 100.77577 100.77577)
  create_atoms CPU = 0.012 seconds
----------------------------------------------------------
Using INTEL Package without Coprocessor.
Compiler: Intel Classic C++ 20.21.5 / Intel(R) C++ g++ 9.3 mode
SIMD compiler directives: Enabled
Precision: mixed
----------------------------------------------------------
  generated 0 of 0 mixed pair_coeff terms from geometric mixing rule
Neighbor list info ...
  update every 20 steps, delay 0 steps, check no
  max neighbors/atom: 2000, page size: 100000
  master list distance cutoff = 2.8
  ghost atom cutoff = 2.8
  binsize = 1.4, bins = 72 72 72
  1 neighbor lists, perpetual/occasional/extra = 1 0 0
  (1) pair lj/cut/intel, perpetual
      attributes: half, newton on, intel
      pair build: half/bin/newton/intel
      stencil: half/bin/3d
      bin: intel
Setting up Verlet run ...
  Unit style    : lj
  Current step  : 0
  Time step     : 0.005
Per MPI rank memory allocation (min/avg/max) = 472.6 | 472.7 | 472.7 Mbytes
Step Temp E_pair E_mol TotEng Press 
       0         1.44   -6.7733674            0   -4.6133699   -5.0196712 
     100   0.75926565   -5.7611847            0   -4.6222875   0.19243178 
Loop time of 2.10232 on 16 procs for 100 steps with 864000 atoms

Performance: 20548.734 tau/day, 47.567 timesteps/s
84.5% CPU use with 16 MPI tasks x 1 OpenMP threads

MPI task timing breakdown:
Section |  min time  |  avg time  |  max time  |%varavg| %total
---------------------------------------------------------------
Pair    | 0.89011    | 0.94287    | 1.3959     |  12.2 | 44.85
Neigh   | 0.072366   | 0.081375   | 0.14261    |   5.6 |  3.87
Comm    | 0.35844    | 0.97827    | 1.0526     |  16.3 | 46.53
Output  | 0.00022256 | 0.0067838  | 0.026401   |  13.7 |  0.32
Modify  | 0.066612   | 0.078461   | 0.17681    |   9.1 |  3.73
Other   |            | 0.01457    |            |       |  0.69

Nlocal:          54000 ave       54091 max       53909 min
Histogram: 1 0 3 1 4 2 2 0 1 2
Nghost:        28658.2 ave       28718 max       28563 min
Histogram: 1 1 1 2 0 2 2 1 1 5
Neighs:    2.02811e+06 ave 2.04227e+06 max   2.015e+06 min
Histogram: 1 2 3 0 2 2 1 3 1 1

Total # of neighbors = 32449783
Ave neighs/atom = 37.557619
Neighbor list builds = 5
Dangerous builds not checked
Total wall time: 0:00:02
Intel(R) VTune(TM) Profiler 2022.2.0 collection completed successfully. Use the "aps --report /home/ubuntu/lammps/bench/aps_result_20220526" command to generate textual and HTML reports for the profiling session.
