LAMMPS (7 Jan 2022)
  using 1 OpenMP thread(s) per MPI task
Lattice spacing in x,y,z = 1.6795962 1.6795962 1.6795962
Created orthogonal box = (0 0 0) to (134.3677 134.3677 134.3677)
  2 by 2 by 4 MPI processor grid
Created 2048000 atoms
  using lattice units in orthogonal box = (0 0 0) to (134.3677 134.3677 134.3677)
  create_atoms CPU = 0.033 seconds
----------------------------------------------------------
Using INTEL Package without Coprocessor.
Compiler: Intel Classic C++ 20.21.5 / Intel(R) C++ g++ 9.3 mode
SIMD compiler directives: Enabled
Precision: mixed
----------------------------------------------------------
  generated 0 of 0 mixed pair_coeff terms from geometric mixing rule
Neighbor list info ...
  update every 20 steps, delay 0 steps, check no
  max neighbors/atom: 2000, page size: 100000
  master list distance cutoff = 2.8
  ghost atom cutoff = 2.8
  binsize = 1.4, bins = 96 96 96
  1 neighbor lists, perpetual/occasional/extra = 1 0 0
  (1) pair lj/cut/intel, perpetual
      attributes: half, newton on, intel
      pair build: half/bin/newton/intel
      stencil: half/bin/3d
      bin: intel
Setting up Verlet run ...
  Unit style    : lj
  Current step  : 0
  Time step     : 0.005
Per MPI rank memory allocation (min/avg/max) = 1085 | 1112 | 1138 Mbytes
Step Temp E_pair E_mol TotEng Press 
       0         1.44   -6.7733683            0   -4.6133693   -5.0196694 
     100   0.75921979   -5.7611316            0   -4.6223025   0.19208794 
Loop time of 4.70875 on 16 procs for 100 steps with 2048000 atoms

Performance: 9174.416 tau/day, 21.237 timesteps/s
84.8% CPU use with 16 MPI tasks x 1 OpenMP threads

MPI task timing breakdown:
Section |  min time  |  avg time  |  max time  |%varavg| %total
---------------------------------------------------------------
Pair    | 1.9493     | 2.133      | 3.5023     |  24.5 | 45.30
Neigh   | 0.15231    | 0.17425    | 0.30683    |   8.3 |  3.70
Comm    | 0.36099    | 2.1252     | 2.3673     |  31.6 | 45.13
Output  | 0.00052018 | 0.027124   | 0.063161   |  12.8 |  0.58
Modify  | 0.16024    | 0.20345    | 0.48455    |  16.3 |  4.32
Other   |            | 0.04572    |            |       |  0.97

Nlocal:         128000 ave      128170 max      127822 min
Histogram: 1 2 2 1 2 1 2 2 1 2
Nghost:        49229.9 ave       49414 max       49086 min
Histogram: 3 2 1 2 2 1 1 1 2 1
Neighs:    4.80713e+06 ave 4.82652e+06 max 4.78775e+06 min
Histogram: 3 2 0 1 1 1 3 1 1 3

Total # of neighbors = 76914004
Ave neighs/atom = 37.555666
Neighbor list builds = 5
Dangerous builds not checked
Total wall time: 0:00:04
Intel(R) VTune(TM) Profiler 2022.2.0 collection completed successfully. Use the "aps --report /home/ubuntu/lammps/bench/aps_result_20220526" command to generate textual and HTML reports for the profiling session.
