LAMMPS (7 Jan 2022)
  using 1 OpenMP thread(s) per MPI task
Lattice spacing in x,y,z = 1.6795962 1.6795962 1.6795962
Created orthogonal box = (0 0 0) to (67.183848 67.183848 67.183848)
  2 by 4 by 4 MPI processor grid
Created 256000 atoms
  using lattice units in orthogonal box = (0 0 0) to (67.183848 67.183848 67.183848)
  create_atoms CPU = 0.002 seconds
----------------------------------------------------------
Using INTEL Package without Coprocessor.
Compiler: Intel Classic C++ 20.21.5 / Intel(R) C++ g++ 9.3 mode
SIMD compiler directives: Enabled
Precision: single
----------------------------------------------------------
  generated 0 of 0 mixed pair_coeff terms from geometric mixing rule
Neighbor list info ...
  update every 20 steps, delay 0 steps, check no
  max neighbors/atom: 2000, page size: 100000
  master list distance cutoff = 2.8
  ghost atom cutoff = 2.8
  binsize = 1.4, bins = 48 48 48
  1 neighbor lists, perpetual/occasional/extra = 1 0 0
  (1) pair lj/cut/intel, perpetual
      attributes: half, newton on, intel
      pair build: half/bin/newton/intel
      stencil: half/bin/3d
      bin: intel
Setting up Verlet run ...
  Unit style    : lj
  Current step  : 0
  Time step     : 0.005
Per MPI rank memory allocation (min/avg/max) = 66 | 72.62 | 79.47 Mbytes
Step Temp E_pair E_mol TotEng Press 
       0         1.44   -6.7734024            0   -4.6134109   -5.0196775 
     100   0.75865619   -5.7603261            0   -4.6223463    0.1958599 
Loop time of 0.1678 on 32 procs for 100 steps with 256000 atoms

Performance: 257448.695 tau/day, 595.946 timesteps/s
97.6% CPU use with 32 MPI tasks x 1 OpenMP threads

MPI task timing breakdown:
Section |  min time  |  avg time  |  max time  |%varavg| %total
---------------------------------------------------------------
Pair    | 0.096728   | 0.11801    | 0.12381    |   2.5 | 70.33
Neigh   | 0.010024   | 0.012351   | 0.013174   |   0.8 |  7.36
Comm    | 0.023872   | 0.030035   | 0.054771   |   5.8 | 17.90
Output  | 6.1198e-05 | 6.9322e-05 | 0.00010407 |   0.0 |  0.04
Modify  | 0.0047361  | 0.0057982  | 0.0064577  |   0.5 |  3.46
Other   |            | 0.001536   |            |       |  0.92

Nlocal:           8000 ave        8078 max        7951 min
Histogram: 4 6 5 3 4 2 4 2 1 1
Nghost:        8995.78 ave        9049 max        8932 min
Histogram: 2 2 4 2 5 2 3 5 4 3
Neighs:         300435 ave      305104 max      297255 min
Histogram: 4 2 7 3 1 11 2 0 0 2

Total # of neighbors = 9613934
Ave neighs/atom = 37.55443
Neighbor list builds = 5
Dangerous builds not checked
Total wall time: 0:00:00
Intel(R) VTune(TM) Profiler 2022.2.0 collection completed successfully. Use the "aps --report /home/ubuntu/lammps/bench/aps_result_20220601" command to generate textual and HTML reports for the profiling session.
