LAMMPS (7 Jan 2022)
  using 1 OpenMP thread(s) per MPI task
Lattice spacing in x,y,z = 1.6795962 1.6795962 1.6795962
Created orthogonal box = (0 0 0) to (100.77577 100.77577 100.77577)
  2 by 2 by 2 MPI processor grid
Created 864000 atoms
  using lattice units in orthogonal box = (0 0 0) to (100.77577 100.77577 100.77577)
  create_atoms CPU = 0.030 seconds
----------------------------------------------------------
Using INTEL Package without Coprocessor.
Compiler: Intel Classic C++ 20.21.5 / Intel(R) C++ g++ 9.3 mode
SIMD compiler directives: Enabled
Precision: mixed
----------------------------------------------------------
  generated 0 of 0 mixed pair_coeff terms from geometric mixing rule
Neighbor list info ...
  update every 20 steps, delay 0 steps, check no
  max neighbors/atom: 2000, page size: 100000
  master list distance cutoff = 2.8
  ghost atom cutoff = 2.8
  binsize = 1.4, bins = 72 72 72
  1 neighbor lists, perpetual/occasional/extra = 1 0 0
  (1) pair lj/cut/intel, perpetual
      attributes: half, newton on, intel
      pair build: half/bin/newton/intel
      stencil: half/bin/3d
      bin: intel
Setting up Verlet run ...
  Unit style    : lj
  Current step  : 0
  Time step     : 0.005
Per MPI rank memory allocation (min/avg/max) = 938.8 | 938.8 | 938.8 Mbytes
Step Temp E_pair E_mol TotEng Press 
       0         1.44   -6.7733674            0   -4.6133699   -5.0196712 
     100   0.75926565   -5.7611847            0   -4.6222875   0.19243178 
Loop time of 3.70159 on 8 procs for 100 steps with 864000 atoms

Performance: 11670.671 tau/day, 27.015 timesteps/s
81.9% CPU use with 8 MPI tasks x 1 OpenMP threads

MPI task timing breakdown:
Section |  min time  |  avg time  |  max time  |%varavg| %total
---------------------------------------------------------------
Pair    | 1.6045     | 1.7991     | 2.9266     |  31.9 | 48.60
Neigh   | 0.13418    | 0.15129    | 0.25011    |   9.6 |  4.09
Comm    | 0.29672    | 1.5964     | 1.8229     |  39.0 | 43.13
Output  | 0.00031013 | 0.00036733 | 0.00040986 |   0.0 |  0.01
Modify  | 0.11858    | 0.13021    | 0.18321    |   5.6 |  3.52
Other   |            | 0.0243     |            |       |  0.66

Nlocal:         108000 ave      108104 max      107935 min
Histogram: 3 2 0 0 0 0 0 0 2 1
Nghost:        41825.9 ave       41909 max       41715 min
Histogram: 1 1 1 0 0 0 0 2 2 1
Neighs:    4.05622e+06 ave 4.07173e+06 max 4.04305e+06 min
Histogram: 1 0 1 1 3 0 0 1 0 1

Total # of neighbors = 32449783
Ave neighs/atom = 37.557619
Neighbor list builds = 5
Dangerous builds not checked
Total wall time: 0:00:03
Intel(R) VTune(TM) Profiler 2022.2.0 collection completed successfully. Use the "aps --report /home/ubuntu/lammps/bench/aps_result_20220526" command to generate textual and HTML reports for the profiling session.
