LAMMPS (7 Jan 2022)
  using 1 OpenMP thread(s) per MPI task
Lattice spacing in x,y,z = 1.6795962 1.6795962 1.6795962
Created orthogonal box = (0 0 0) to (33.591924 33.591924 33.591924)
  1 by 1 by 2 MPI processor grid
Created 32000 atoms
  using lattice units in orthogonal box = (0 0 0) to (33.591924 33.591924 33.591924)
  create_atoms CPU = 0.004 seconds
----------------------------------------------------------
Using INTEL Package without Coprocessor.
Compiler: Intel Classic C++ 20.21.5 / Intel(R) C++ g++ 9.3 mode
SIMD compiler directives: Enabled
Precision: mixed
----------------------------------------------------------
  generated 0 of 0 mixed pair_coeff terms from geometric mixing rule
Neighbor list info ...
  update every 20 steps, delay 0 steps, check no
  max neighbors/atom: 2000, page size: 100000
  master list distance cutoff = 2.8
  ghost atom cutoff = 2.8
  binsize = 1.4, bins = 24 24 24
  1 neighbor lists, perpetual/occasional/extra = 1 0 0
  (1) pair lj/cut/intel, perpetual
      attributes: half, newton on, intel
      pair build: half/bin/newton/intel
      stencil: half/bin/3d
      bin: intel
Setting up Verlet run ...
  Unit style    : lj
  Current step  : 0
  Time step     : 0.005
Per MPI rank memory allocation (min/avg/max) = 141.6 | 141.6 | 141.6 Mbytes
Step Temp E_pair E_mol TotEng Press 
       0         1.44   -6.7733683            0   -4.6134358    -5.019707 
     100   0.75745333   -5.7585066            0   -4.6223621   0.20725895 
Loop time of 0.594618 on 2 procs for 100 steps with 32000 atoms

Performance: 72651.643 tau/day, 168.175 timesteps/s
67.2% CPU use with 2 MPI tasks x 1 OpenMP threads

MPI task timing breakdown:
Section |  min time  |  avg time  |  max time  |%varavg| %total
---------------------------------------------------------------
Pair    | 0.25846    | 0.32855    | 0.39865    |  12.2 | 55.25
Neigh   | 0.02429    | 0.029763   | 0.035235   |   3.2 |  5.01
Comm    | 0.14752    | 0.22207    | 0.29663    |  15.8 | 37.35
Output  | 5.673e-05  | 5.7401e-05 | 5.8073e-05 |   0.0 |  0.01
Modify  | 0.010226   | 0.010979   | 0.011732   |   0.7 |  1.85
Other   |            | 0.003194   |            |       |  0.54

Nlocal:          16000 ave       16001 max       15999 min
Histogram: 1 0 0 0 0 0 0 0 0 1
Nghost:        13632.5 ave       13635 max       13630 min
Histogram: 1 0 0 0 0 0 0 0 0 1
Neighs:         601418 ave      605201 max      597634 min
Histogram: 1 0 0 0 0 0 0 0 0 1

Total # of neighbors = 1202835
Ave neighs/atom = 37.588594
Neighbor list builds = 5
Dangerous builds not checked
Total wall time: 0:00:00
Intel(R) VTune(TM) Profiler 2022.2.0 collection completed successfully. Use the "aps --report /home/ubuntu/lammps/bench/aps_result_20220526" command to generate textual and HTML reports for the profiling session.
