LAMMPS (7 Jan 2022)
  using 1 OpenMP thread(s) per MPI task
Lattice spacing in x,y,z = 1.6795962 1.6795962 1.6795962
Created orthogonal box = (0 0 0) to (134.3677 134.3677 134.3677)
  2 by 2 by 4 MPI processor grid
Created 2048000 atoms
  using lattice units in orthogonal box = (0 0 0) to (134.3677 134.3677 134.3677)
  create_atoms CPU = 0.034 seconds
----------------------------------------------------------
Using INTEL Package without Coprocessor.
Compiler: Intel Classic C++ 20.21.5 / Intel(R) C++ g++ 9.3 mode
SIMD compiler directives: Enabled
Precision: double
----------------------------------------------------------
  generated 0 of 0 mixed pair_coeff terms from geometric mixing rule
Neighbor list info ...
  update every 20 steps, delay 0 steps, check no
  max neighbors/atom: 2000, page size: 100000
  master list distance cutoff = 2.8
  ghost atom cutoff = 2.8
  binsize = 1.4, bins = 96 96 96
  1 neighbor lists, perpetual/occasional/extra = 1 0 0
  (1) pair lj/cut/intel, perpetual
      attributes: half, newton on, intel
      pair build: half/bin/newton/intel
      stencil: half/bin/3d
      bin: intel
Setting up Verlet run ...
  Unit style    : lj
  Current step  : 0
  Time step     : 0.005
Per MPI rank memory allocation (min/avg/max) = 1088 | 1115 | 1141 Mbytes
Step Temp E_pair E_mol TotEng Press 
       0         1.44   -6.7733681            0   -4.6133691   -5.0196699 
     100   0.75921977   -5.7611315            0   -4.6223024   0.19208802 
Loop time of 5.91729 on 16 procs for 100 steps with 2048000 atoms

Performance: 7300.640 tau/day, 16.900 timesteps/s
78.0% CPU use with 16 MPI tasks x 1 OpenMP threads

MPI task timing breakdown:
Section |  min time  |  avg time  |  max time  |%varavg| %total
---------------------------------------------------------------
Pair    | 1.7845     | 2.0762     | 3.4551     |  33.3 | 35.09
Neigh   | 0.16695    | 0.18866    | 0.31943    |  10.1 |  3.19
Comm    | 1.6596     | 3.3797     | 3.7031     |  32.2 | 57.12
Output  | 0.00051433 | 0.028299   | 0.065117   |  13.1 |  0.48
Modify  | 0.1528     | 0.19846    | 0.42929    |  18.3 |  3.35
Other   |            | 0.04602    |            |       |  0.78

Nlocal:         128000 ave      128170 max      127822 min
Histogram: 1 2 2 1 2 1 2 2 1 2
Nghost:        49229.9 ave       49414 max       49086 min
Histogram: 3 2 1 2 2 1 1 1 2 1
Neighs:    4.80712e+06 ave 4.82651e+06 max 4.78776e+06 min
Histogram: 3 2 0 1 1 1 3 1 1 3

Total # of neighbors = 76914000
Ave neighs/atom = 37.555664
Neighbor list builds = 5
Dangerous builds not checked
Total wall time: 0:00:06
Intel(R) VTune(TM) Profiler 2022.2.0 collection completed successfully. Use the "aps --report /home/ubuntu/lammps/bench/aps_result_20220531" command to generate textual and HTML reports for the profiling session.
