LAMMPS (7 Jan 2022)
  using 1 OpenMP thread(s) per MPI task
Lattice spacing in x,y,z = 1.6795962 1.6795962 1.6795962
Created orthogonal box = (0 0 0) to (33.591924 33.591924 33.591924)
  2 by 2 by 2 MPI processor grid
Created 32000 atoms
  using lattice units in orthogonal box = (0 0 0) to (33.591924 33.591924 33.591924)
  create_atoms CPU = 0.029 seconds
----------------------------------------------------------
Using INTEL Package without Coprocessor.
Compiler: Intel Classic C++ 20.21.5 / Intel(R) C++ g++ 9.3 mode
SIMD compiler directives: Enabled
Precision: double
----------------------------------------------------------
  generated 0 of 0 mixed pair_coeff terms from geometric mixing rule
Neighbor list info ...
  update every 20 steps, delay 0 steps, check no
  max neighbors/atom: 2000, page size: 100000
  master list distance cutoff = 2.8
  ghost atom cutoff = 2.8
  binsize = 1.4, bins = 24 24 24
  1 neighbor lists, perpetual/occasional/extra = 1 0 0
  (1) pair lj/cut/intel, perpetual
      attributes: half, newton on, intel
      pair build: half/bin/newton/intel
      stencil: half/bin/3d
      bin: intel
Setting up Verlet run ...
  Unit style    : lj
  Current step  : 0
  Time step     : 0.005
Per MPI rank memory allocation (min/avg/max) = 37.16 | 37.16 | 37.16 Mbytes
Step Temp E_pair E_mol TotEng Press 
       0         1.44   -6.7733681            0   -4.6134356   -5.0197073 
     100    0.7574531   -5.7585055            0   -4.6223613   0.20726105 
Loop time of 2.69093 on 8 procs for 100 steps with 32000 atoms

Performance: 16053.959 tau/day, 37.162 timesteps/s
62.2% CPU use with 8 MPI tasks x 1 OpenMP threads

MPI task timing breakdown:
Section |  min time  |  avg time  |  max time  |%varavg| %total
---------------------------------------------------------------
Pair    | 0.050983   | 0.065938   | 0.11013    |   7.6 |  2.45
Neigh   | 0.0055366  | 0.0081771  | 0.021659   |   5.7 |  0.30
Comm    | 2.532      | 2.6115     | 2.6383     |   2.0 | 97.05
Output  | 2.6106e-05 | 2.7462e-05 | 3.3695e-05 |   0.0 |  0.00
Modify  | 0.0024329  | 0.0046468  | 0.01851    |   7.7 |  0.17
Other   |            | 0.0006537  |            |       |  0.02

Nlocal:           4000 ave        4033 max        3962 min
Histogram: 1 0 1 1 0 2 1 0 0 2
Nghost:        5756.75 ave        5804 max        5724 min
Histogram: 1 1 1 1 2 0 1 0 0 1
Neighs:         150354 ave      152935 max      147476 min
Histogram: 1 0 0 1 2 1 1 0 1 1

Total # of neighbors = 1202833
Ave neighs/atom = 37.588531
Neighbor list builds = 5
Dangerous builds not checked
Total wall time: 0:00:03
Intel(R) VTune(TM) Profiler 2022.2.0 collection completed successfully. Use the "aps --report /home/ubuntu/lammps/bench/aps_result_20220531" command to generate textual and HTML reports for the profiling session.
