LAMMPS (7 Jan 2022)
  using 1 OpenMP thread(s) per MPI task
Lattice spacing in x,y,z = 1.6795962 1.6795962 1.6795962
Created orthogonal box = (0 0 0) to (33.591924 33.591924 33.591924)
  1 by 1 by 1 MPI processor grid
Created 32000 atoms
  using lattice units in orthogonal box = (0 0 0) to (33.591924 33.591924 33.591924)
  create_atoms CPU = 0.010 seconds
----------------------------------------------------------
Using INTEL Package without Coprocessor.
Compiler: Intel Classic C++ 20.21.5 / Intel(R) C++ g++ 9.3 mode
SIMD compiler directives: Enabled
Precision: mixed
----------------------------------------------------------
  generated 0 of 0 mixed pair_coeff terms from geometric mixing rule
Neighbor list info ...
  update every 20 steps, delay 0 steps, check no
  max neighbors/atom: 2000, page size: 100000
  master list distance cutoff = 2.8
  ghost atom cutoff = 2.8
  binsize = 1.4, bins = 24 24 24
  1 neighbor lists, perpetual/occasional/extra = 1 0 0
  (1) pair lj/cut/intel, perpetual
      attributes: half, newton on, intel
      pair build: half/bin/newton/intel
      stencil: half/bin/3d
      bin: intel
Setting up Verlet run ...
  Unit style    : lj
  Current step  : 0
  Time step     : 0.005
Per MPI rank memory allocation (min/avg/max) = 280.9 | 280.9 | 280.9 Mbytes
Step Temp E_pair E_mol TotEng Press 
       0         1.44   -6.7733683            0   -4.6134358    -5.019707 
   10000   0.69494317   -5.6635227            0   -4.6211406    0.7666384 
Loop time of 49.1237 on 1 procs for 10000 steps with 32000 atoms

Performance: 87941.303 tau/day, 203.568 timesteps/s
100.0% CPU use with 1 MPI tasks x 1 OpenMP threads

MPI task timing breakdown:
Section |  min time  |  avg time  |  max time  |%varavg| %total
---------------------------------------------------------------
Pair    | 41.053     | 41.053     | 41.053     |   0.0 | 83.57
Neigh   | 3.8035     | 3.8035     | 3.8035     |   0.0 |  7.74
Comm    | 1.522      | 1.522      | 1.522      |   0.0 |  3.10
Output  | 0.0012119  | 0.0012119  | 0.0012119  |   0.0 |  0.00
Modify  | 2.1849     | 2.1849     | 2.1849     |   0.0 |  4.45
Other   |            | 0.559      |            |       |  1.14

Nlocal:          32000 ave       32000 max       32000 min
Histogram: 1 0 0 0 0 0 0 0 0 0
Nghost:          18842 ave       18842 max       18842 min
Histogram: 1 0 0 0 0 0 0 0 0 0
Neighs:    1.20011e+06 ave 1.20011e+06 max 1.20011e+06 min
Histogram: 1 0 0 0 0 0 0 0 0 0

Total # of neighbors = 1200112
Ave neighs/atom = 37.5035
Neighbor list builds = 500
Dangerous builds not checked
Total wall time: 0:00:49
Intel(R) VTune(TM) Profiler 2022.2.0 collection completed successfully. Use the "aps --report /home/ubuntu/lammps/bench/aps_result_20220702" command to generate textual and HTML reports for the profiling session.
