LAMMPS (7 Jan 2022)
  using 1 OpenMP thread(s) per MPI task
Lattice spacing in x,y,z = 1.6795962 1.6795962 1.6795962
Created orthogonal box = (0 0 0) to (134.3677 134.3677 134.3677)
  2 by 2 by 4 MPI processor grid
Created 2048000 atoms
  using lattice units in orthogonal box = (0 0 0) to (134.3677 134.3677 134.3677)
  create_atoms CPU = 0.059 seconds
----------------------------------------------------------
Using INTEL Package without Coprocessor.
Compiler: Intel Classic C++ 20.21.5 / Intel(R) C++ g++ 9.3 mode
SIMD compiler directives: Enabled
Precision: mixed
----------------------------------------------------------
  generated 0 of 0 mixed pair_coeff terms from geometric mixing rule
Neighbor list info ...
  update every 20 steps, delay 0 steps, check no
  max neighbors/atom: 2000, page size: 100000
  master list distance cutoff = 2.8
  ghost atom cutoff = 2.8
  binsize = 1.4, bins = 96 96 96
  1 neighbor lists, perpetual/occasional/extra = 1 0 0
  (1) pair lj/cut/intel, perpetual
      attributes: half, newton on, intel
      pair build: half/bin/newton/intel
      stencil: half/bin/3d
      bin: intel
Setting up Verlet run ...
  Unit style    : lj
  Current step  : 0
  Time step     : 0.005
Per MPI rank memory allocation (min/avg/max) = 1085 | 1112 | 1138 Mbytes
Step Temp E_pair E_mol TotEng Press 
       0         1.44   -6.7733683            0   -4.6133693   -5.0196694 
   10000   0.69707086   -5.6667808            0    -4.621175   0.74863604 
Loop time of 238.833 on 16 procs for 10000 steps with 2048000 atoms

Performance: 18087.927 tau/day, 41.870 timesteps/s
99.7% CPU use with 16 MPI tasks x 1 OpenMP threads

MPI task timing breakdown:
Section |  min time  |  avg time  |  max time  |%varavg| %total
---------------------------------------------------------------
Pair    | 179.57     | 180.03     | 180.61     |   2.4 | 75.38
Neigh   | 14.646     | 14.737     | 14.994     |   2.1 |  6.17
Comm    | 18.195     | 19.04      | 20.126     |  12.4 |  7.97
Output  | 0.00050173 | 0.00053839 | 0.00057485 |   0.0 |  0.00
Modify  | 20.259     | 20.966     | 21.523     |   8.0 |  8.78
Other   |            | 4.062      |            |       |  1.70

Nlocal:         128000 ave      128109 max      127852 min
Histogram: 1 1 1 3 0 2 2 1 1 4
Nghost:        47274.2 ave       47398 max       47159 min
Histogram: 2 2 0 3 1 2 2 2 1 1
Neighs:    4.80082e+06 ave   4.821e+06 max 4.78198e+06 min
Histogram: 2 1 0 1 4 5 0 2 0 1

Total # of neighbors = 76813195
Ave neighs/atom = 37.506443
Neighbor list builds = 500
Dangerous builds not checked
Total wall time: 0:03:59
Intel(R) VTune(TM) Profiler 2022.2.0 collection completed successfully. Use the "aps --report /home/ubuntu/lammps/bench/aps_result_20220702" command to generate textual and HTML reports for the profiling session.
