LAMMPS (7 Jan 2022)
  using 1 OpenMP thread(s) per MPI task
Lattice spacing in x,y,z = 1.6795962 1.6795962 1.6795962
Created orthogonal box = (0 0 0) to (134.3677 134.3677 134.3677)
  2 by 2 by 2 MPI processor grid
Created 2048000 atoms
  using lattice units in orthogonal box = (0 0 0) to (134.3677 134.3677 134.3677)
  create_atoms CPU = 0.041 seconds
----------------------------------------------------------
Using INTEL Package without Coprocessor.
Compiler: Intel Classic C++ 20.21.5 / Intel(R) C++ g++ 9.3 mode
SIMD compiler directives: Enabled
Precision: single
----------------------------------------------------------
  generated 0 of 0 mixed pair_coeff terms from geometric mixing rule
Neighbor list info ...
  update every 20 steps, delay 0 steps, check no
  max neighbors/atom: 2000, page size: 100000
  master list distance cutoff = 2.8
  ghost atom cutoff = 2.8
  binsize = 1.4, bins = 96 96 96
  1 neighbor lists, perpetual/occasional/extra = 1 0 0
  (1) pair lj/cut/intel, perpetual
      attributes: half, newton on, intel
      pair build: half/bin/newton/intel
      stencil: half/bin/3d
      bin: intel
Setting up Verlet run ...
  Unit style    : lj
  Current step  : 0
  Time step     : 0.005
Per MPI rank memory allocation (min/avg/max) = 2211 | 2211 | 2211 Mbytes
Step Temp E_pair E_mol TotEng Press 
       0         1.44   -6.7761559            0   -4.6161569   -5.0197001 
     100   0.75921979   -5.7611492            0     -4.62232   0.19208841 
Loop time of 4.80212 on 8 procs for 100 steps with 2048000 atoms

Performance: 8996.034 tau/day, 20.824 timesteps/s
98.9% CPU use with 8 MPI tasks x 1 OpenMP threads

MPI task timing breakdown:
Section |  min time  |  avg time  |  max time  |%varavg| %total
---------------------------------------------------------------
Pair    | 3.5042     | 3.5868     | 3.6907     |   2.9 | 74.69
Neigh   | 0.29977    | 0.30346    | 0.31515    |   0.9 |  6.32
Comm    | 0.34709    | 0.47987    | 0.56384    |   9.1 |  9.99
Output  | 0.0007913  | 0.00084018 | 0.00091239 |   0.0 |  0.02
Modify  | 0.34391    | 0.35659    | 0.37097    |   1.8 |  7.43
Other   |            | 0.0746     |            |       |  1.55

Nlocal:         256000 ave      256144 max      255896 min
Histogram: 2 0 1 0 2 2 0 0 0 1
Nghost:        72332.1 ave       72467 max       72200 min
Histogram: 2 0 0 0 1 3 0 0 1 1
Neighs:    9.61425e+06 ave 9.63427e+06 max 9.59987e+06 min
Histogram: 3 0 1 0 1 0 1 0 1 1

Total # of neighbors = 76914018
Ave neighs/atom = 37.555673
Neighbor list builds = 5
Dangerous builds not checked
Total wall time: 0:00:05
Intel(R) VTune(TM) Profiler 2022.2.0 collection completed successfully. Use the "aps --report /home/ubuntu/lammps/bench/aps_result_20220601" command to generate textual and HTML reports for the profiling session.
