LAMMPS (7 Jan 2022)
  using 1 OpenMP thread(s) per MPI task
Lattice spacing in x,y,z = 1.6795962 1.6795962 1.6795962
Created orthogonal box = (0 0 0) to (134.3677 134.3677 134.3677)
  2 by 2 by 4 MPI processor grid
Created 2048000 atoms
  using lattice units in orthogonal box = (0 0 0) to (134.3677 134.3677 134.3677)
  create_atoms CPU = 0.030 seconds
----------------------------------------------------------
Using INTEL Package without Coprocessor.
Compiler: Intel Classic C++ 20.21.5 / Intel(R) C++ g++ 9.3 mode
SIMD compiler directives: Enabled
Precision: single
----------------------------------------------------------
  generated 0 of 0 mixed pair_coeff terms from geometric mixing rule
Neighbor list info ...
  update every 20 steps, delay 0 steps, check no
  max neighbors/atom: 2000, page size: 100000
  master list distance cutoff = 2.8
  ghost atom cutoff = 2.8
  binsize = 1.4, bins = 96 96 96
  1 neighbor lists, perpetual/occasional/extra = 1 0 0
  (1) pair lj/cut/intel, perpetual
      attributes: half, newton on, intel
      pair build: half/bin/newton/intel
      stencil: half/bin/3d
      bin: intel
Setting up Verlet run ...
  Unit style    : lj
  Current step  : 0
  Time step     : 0.005
Per MPI rank memory allocation (min/avg/max) = 1082 | 1109 | 1135 Mbytes
Step Temp E_pair E_mol TotEng Press 
       0         1.44   -6.7739259            0   -4.6139269   -5.0196926 
     100   0.75921979   -5.7611353            0   -4.6223061   0.19208763 
Loop time of 2.75292 on 16 procs for 100 steps with 2048000 atoms

Performance: 15692.423 tau/day, 36.325 timesteps/s
98.5% CPU use with 16 MPI tasks x 1 OpenMP threads

MPI task timing breakdown:
Section |  min time  |  avg time  |  max time  |%varavg| %total
---------------------------------------------------------------
Pair    | 1.8819     | 2.0428     | 2.0937     |   4.8 | 74.20
Neigh   | 0.16073    | 0.17956    | 0.18923    |   2.0 |  6.52
Comm    | 0.21987    | 0.28632    | 0.47322    |  14.8 | 10.40
Output  | 0.0005855  | 0.00078854 | 0.0013581  |   0.0 |  0.03
Modify  | 0.19159    | 0.19802    | 0.20784    |   1.0 |  7.19
Other   |            | 0.04544    |            |       |  1.65

Nlocal:         128000 ave      128170 max      127822 min
Histogram: 1 2 2 1 2 1 2 2 1 2
Nghost:        49229.9 ave       49414 max       49086 min
Histogram: 3 2 1 2 2 1 1 1 2 1
Neighs:    4.80713e+06 ave 4.82652e+06 max 4.78776e+06 min
Histogram: 3 2 0 1 1 1 3 1 1 3

Total # of neighbors = 76914019
Ave neighs/atom = 37.555673
Neighbor list builds = 5
Dangerous builds not checked
Total wall time: 0:00:02
Intel(R) VTune(TM) Profiler 2022.2.0 collection completed successfully. Use the "aps --report /home/ubuntu/lammps/bench/aps_result_20220601" command to generate textual and HTML reports for the profiling session.
