LAMMPS (7 Jan 2022)
  using 1 OpenMP thread(s) per MPI task
New timer settings: style=full  mode=nosync  timeout=off
Lattice spacing in x,y,z = 1.6795962 1.6795962 1.6795962
Created orthogonal box = (0 0 0) to (100.77577 100.77577 100.77577)
  1 by 1 by 2 MPI processor grid
Created 864000 atoms
  using lattice units in orthogonal box = (0 0 0) to (100.77577 100.77577 100.77577)
  create_atoms CPU = 0.058 seconds
----------------------------------------------------------
Using INTEL Package without Coprocessor.
Compiler: Intel Classic C++ 20.21.5 / Intel(R) C++ g++ 9.3 mode
SIMD compiler directives: Enabled
Precision: mixed
----------------------------------------------------------
  generated 0 of 0 mixed pair_coeff terms from geometric mixing rule
Neighbor list info ...
  update every 20 steps, delay 0 steps, check no
  max neighbors/atom: 2000, page size: 100000
  master list distance cutoff = 2.8
  ghost atom cutoff = 2.8
  binsize = 1.4, bins = 72 72 72
  1 neighbor lists, perpetual/occasional/extra = 1 0 0
  (1) pair lj/cut/intel, perpetual
      attributes: half, newton on, intel
      pair build: half/bin/newton/intel
      stencil: half/bin/3d
      bin: intel
Setting up Verlet run ...
  Unit style    : lj
  Current step  : 0
  Time step     : 0.005
Per MPI rank memory allocation (min/avg/max) = 3737 | 3737 | 3737 Mbytes
Step Temp E_pair E_mol TotEng Press 
       0         1.44   -6.7733674            0   -4.6133699   -5.0196712 
     100   0.75926565   -5.7611847            0   -4.6222875   0.19243178 
Loop time of 7.79595 on 2 procs for 100 steps with 864000 atoms

Performance: 5541.337 tau/day, 12.827 timesteps/s
98.9% CPU use with 2 MPI tasks x 1 OpenMP threads

MPI task timing breakdown:
Section |  min time  |  avg time  |  max time  |%varavg|  %CPU | %total
-----------------------------------------------------------------------
Pair    | 6.1819     | 6.2055     | 6.2291     |   0.9 |  99.1 | 79.60
Neigh   | 0.51199    | 0.51287    | 0.51375    |   0.1 |  99.2 |  6.58
Comm    | 0.38716    | 0.41066    | 0.43416    |   3.7 |  96.7 |  5.27
Output  | 0.0010881  | 0.0011132  | 0.0011383  |   0.1 | 100.0 |  0.01
Modify  | 0.57464    | 0.57472    | 0.5748     |   0.0 |  98.4 |  7.37
Other   |            | 0.0911     |            |       |       |  1.17

Nlocal:         432000 ave      432061 max      431939 min
Histogram: 1 0 0 0 0 0 0 0 0 1
Nghost:         106982 ave      106995 max      106968 min
Histogram: 1 0 0 0 0 0 0 0 0 1
Neighs:    1.62249e+07 ave 1.62488e+07 max 1.62009e+07 min
Histogram: 1 0 0 0 0 0 0 0 0 1

Total # of neighbors = 32449783
Ave neighs/atom = 37.557619
Neighbor list builds = 5
Dangerous builds not checked
Total wall time: 0:00:08
Intel(R) VTune(TM) Profiler 2022.2.0 collection completed successfully. Use the "aps --report /home/ubuntu/lammps/bench/aps_result_20220519" command to generate textual and HTML reports for the profiling session.
