LAMMPS (7 Jan 2022)
  using 1 OpenMP thread(s) per MPI task
Lattice spacing in x,y,z = 1.6795962 1.6795962 1.6795962
Created orthogonal box = (0 0 0) to (33.591924 33.591924 33.591924)
  2 by 4 by 4 MPI processor grid
Created 32000 atoms
  using lattice units in orthogonal box = (0 0 0) to (33.591924 33.591924 33.591924)
  create_atoms CPU = 0.001 seconds
----------------------------------------------------------
Using INTEL Package without Coprocessor.
Compiler: Intel Classic C++ 20.21.5 / Intel(R) C++ g++ 9.3 mode
SIMD compiler directives: Enabled
Precision: mixed
----------------------------------------------------------
  generated 0 of 0 mixed pair_coeff terms from geometric mixing rule
Neighbor list info ...
  update every 20 steps, delay 0 steps, check no
  max neighbors/atom: 2000, page size: 100000
  master list distance cutoff = 2.8
  ghost atom cutoff = 2.8
  binsize = 1.4, bins = 24 24 24
  1 neighbor lists, perpetual/occasional/extra = 1 0 0
  (1) pair lj/cut/intel, perpetual
      attributes: half, newton on, intel
      pair build: half/bin/newton/intel
      stencil: half/bin/3d
      bin: intel
Setting up Verlet run ...
  Unit style    : lj
  Current step  : 0
  Time step     : 0.005
Per MPI rank memory allocation (min/avg/max) = 9.719 | 11.32 | 13.08 Mbytes
Step Temp E_pair E_mol TotEng Press 
       0         1.44   -6.7733683            0   -4.6134358    -5.019707 
     100   0.75745333   -5.7585066            0   -4.6223621   0.20725895 
Loop time of 0.0750292 on 32 procs for 100 steps with 32000 atoms

Performance: 575775.854 tau/day, 1332.814 timesteps/s
75.2% CPU use with 32 MPI tasks x 1 OpenMP threads

MPI task timing breakdown:
Section |  min time  |  avg time  |  max time  |%varavg| %total
---------------------------------------------------------------
Pair    | 0.013355   | 0.016475   | 0.019808   |   1.0 | 21.96
Neigh   | 0.0014964  | 0.0018729  | 0.002087   |   0.3 |  2.50
Comm    | 0.052004   | 0.055518   | 0.059174   |   0.6 | 73.99
Output  | 2.548e-05  | 3.753e-05  | 8.5067e-05 |   0.0 |  0.05
Modify  | 0.00070125 | 0.00088368 | 0.0010555  |   0.0 |  1.18
Other   |            | 0.0002424  |            |       |  0.32

Nlocal:           1000 ave        1027 max         971 min
Histogram: 1 3 3 4 4 5 3 3 3 3
Nghost:        2855.16 ave        2890 max        2822 min
Histogram: 2 1 4 6 2 7 4 2 2 2
Neighs:        37588.6 ave       39265 max       35681 min
Histogram: 1 2 2 4 8 4 0 4 5 2

Total # of neighbors = 1202835
Ave neighs/atom = 37.588594
Neighbor list builds = 5
Dangerous builds not checked
Total wall time: 0:00:00
Intel(R) VTune(TM) Profiler 2022.2.0 collection completed successfully. Use the "aps --report /home/ubuntu/lammps/bench/aps_result_20220526" command to generate textual and HTML reports for the profiling session.
