LAMMPS (7 Jan 2022)
  using 1 OpenMP thread(s) per MPI task
New timer settings: style=full  mode=nosync  timeout=off
Lattice spacing in x,y,z = 1.6795962 1.6795962 1.6795962
Created orthogonal box = (0 0 0) to (134.3677 134.3677 134.3677)
  4 by 4 by 4 MPI processor grid
Created 2048000 atoms
  using lattice units in orthogonal box = (0 0 0) to (134.3677 134.3677 134.3677)
  create_atoms CPU = 0.011 seconds
----------------------------------------------------------
Using INTEL Package without Coprocessor.
Compiler: Intel Classic C++ 20.21.5 / Intel(R) C++ g++ 9.3 mode
SIMD compiler directives: Enabled
Precision: mixed
----------------------------------------------------------
  generated 0 of 0 mixed pair_coeff terms from geometric mixing rule
Neighbor list info ...
  update every 20 steps, delay 0 steps, check no
  max neighbors/atom: 2000, page size: 100000
  master list distance cutoff = 2.8
  ghost atom cutoff = 2.8
  binsize = 1.4, bins = 96 96 96
  1 neighbor lists, perpetual/occasional/extra = 1 0 0
  (1) pair lj/cut/intel, perpetual
      attributes: half, newton on, intel
      pair build: half/bin/newton/intel
      stencil: half/bin/3d
      bin: intel
Setting up Verlet run ...
  Unit style    : lj
  Current step  : 0
  Time step     : 0.005
Per MPI rank memory allocation (min/avg/max) = 261 | 281.2 | 301.8 Mbytes
Step Temp E_pair E_mol TotEng Press 
       0         1.44   -6.7733683            0   -4.6133693   -5.0196694 
     100   0.75921979   -5.7611316            0   -4.6223025   0.19208794 
Loop time of 0.982101 on 64 procs for 100 steps with 2048000 atoms

Performance: 43987.317 tau/day, 101.822 timesteps/s
97.1% CPU use with 64 MPI tasks x 1 OpenMP threads

MPI task timing breakdown:
Section |  min time  |  avg time  |  max time  |%varavg|  %CPU | %total
-----------------------------------------------------------------------
Pair    | 0.62352    | 0.64491    | 0.69358    |   1.5 |  98.3 | 65.67
Neigh   | 0.048984   | 0.049655   | 0.051758   |   0.3 |  99.5 |  5.06
Comm    | 0.11102    | 0.16449    | 0.20089    |   3.3 |  92.7 | 16.75
Output  | 0.0002655  | 0.00050232 | 0.00085462 |   0.0 | 100.0 |  0.05
Modify  | 0.088595   | 0.10364    | 0.11401    |   1.7 |  96.2 | 10.55
Other   |            | 0.01891    |            |       |       |  1.93

Nlocal:          32000 ave       32113 max       31893 min
Histogram: 3 4 5 10 13 11 4 8 4 2
Nghost:        19642.1 ave       19761 max       19537 min
Histogram: 3 4 11 4 13 12 7 5 3 2
Neighs:    1.20178e+06 ave 1.20971e+06 max 1.19347e+06 min
Histogram: 2 5 8 9 8 9 4 9 8 2

Total # of neighbors = 76914004
Ave neighs/atom = 37.555666
Neighbor list builds = 5
Dangerous builds not checked
Total wall time: 0:00:01
Intel(R) VTune(TM) Profiler 2022.2.0 collection completed successfully. Use the "aps --report /home/ubuntu/lammps/bench/aps_result_20220519" command to generate textual and HTML reports for the profiling session.
