LAMMPS (7 Jan 2022)
  using 1 OpenMP thread(s) per MPI task
Lattice spacing in x,y,z = 1.6795962 1.6795962 1.6795962
Created orthogonal box = (0 0 0) to (67.183848 67.183848 67.183848)
  2 by 2 by 2 MPI processor grid
Created 256000 atoms
  using lattice units in orthogonal box = (0 0 0) to (67.183848 67.183848 67.183848)
  create_atoms CPU = 0.007 seconds
----------------------------------------------------------
Using INTEL Package without Coprocessor.
Compiler: Intel Classic C++ 20.21.5 / Intel(R) C++ g++ 9.3 mode
SIMD compiler directives: Enabled
Precision: mixed
----------------------------------------------------------
  generated 0 of 0 mixed pair_coeff terms from geometric mixing rule
Neighbor list info ...
  update every 20 steps, delay 0 steps, check no
  max neighbors/atom: 2000, page size: 100000
  master list distance cutoff = 2.8
  ghost atom cutoff = 2.8
  binsize = 1.4, bins = 48 48 48
  1 neighbor lists, perpetual/occasional/extra = 1 0 0
  (1) pair lj/cut/intel, perpetual
      attributes: half, newton on, intel
      pair build: half/bin/newton/intel
      stencil: half/bin/3d
      bin: intel
Setting up Verlet run ...
  Unit style    : lj
  Current step  : 0
  Time step     : 0.005
Per MPI rank memory allocation (min/avg/max) = 281.2 | 281.2 | 281.2 Mbytes
Step Temp E_pair E_mol TotEng Press 
       0         1.44   -6.7733683            0   -4.6133767   -5.0196736 
     100   0.75865619   -5.7603259            0    -4.622346   0.19586098 
Loop time of 1.20662 on 8 procs for 100 steps with 256000 atoms

Performance: 35802.619 tau/day, 82.876 timesteps/s
81.1% CPU use with 8 MPI tasks x 1 OpenMP threads

MPI task timing breakdown:
Section |  min time  |  avg time  |  max time  |%varavg| %total
---------------------------------------------------------------
Pair    | 0.51643    | 0.56463    | 0.89158    |  16.4 | 46.79
Neigh   | 0.046967   | 0.050169   | 0.069593   |   3.3 |  4.16
Comm    | 0.15177    | 0.552      | 0.61134    |  20.4 | 45.75
Output  | 0.0001143  | 0.00012253 | 0.00013923 |   0.0 |  0.01
Modify  | 0.024297   | 0.033455   | 0.087773   |  11.2 |  2.77
Other   |            | 0.006232   |            |       |  0.52

Nlocal:          32000 ave       32088 max       31951 min
Histogram: 2 0 2 1 2 0 0 0 0 1
Nghost:        19630.8 ave       19680 max       19536 min
Histogram: 1 0 0 1 0 0 3 0 0 3
Neighs:    1.20174e+06 ave 1.20648e+06 max 1.19658e+06 min
Histogram: 1 2 0 0 0 1 1 0 2 1

Total # of neighbors = 9613939
Ave neighs/atom = 37.554449
Neighbor list builds = 5
Dangerous builds not checked
Total wall time: 0:00:01
Intel(R) VTune(TM) Profiler 2022.2.0 collection completed successfully. Use the "aps --report /home/ubuntu/lammps/bench/aps_result_20220526" command to generate textual and HTML reports for the profiling session.
