LAMMPS (7 Jan 2022)
  using 1 OpenMP thread(s) per MPI task
Lattice spacing in x,y,z = 1.6795962 1.6795962 1.6795962
Created orthogonal box = (0 0 0) to (100.77577 100.77577 100.77577)
  1 by 1 by 1 MPI processor grid
Created 864000 atoms
  using lattice units in orthogonal box = (0 0 0) to (100.77577 100.77577 100.77577)
  create_atoms CPU = 0.108 seconds
----------------------------------------------------------
Using INTEL Package without Coprocessor.
Compiler: Intel Classic C++ 20.21.5 / Intel(R) C++ g++ 9.3 mode
SIMD compiler directives: Enabled
Precision: single
----------------------------------------------------------
  generated 0 of 0 mixed pair_coeff terms from geometric mixing rule
Neighbor list info ...
  update every 20 steps, delay 0 steps, check no
  max neighbors/atom: 2000, page size: 100000
  master list distance cutoff = 2.8
  ghost atom cutoff = 2.8
  binsize = 1.4, bins = 72 72 72
  1 neighbor lists, perpetual/occasional/extra = 1 0 0
  (1) pair lj/cut/intel, perpetual
      attributes: half, newton on, intel
      pair build: half/bin/newton/intel
      stencil: half/bin/3d
      bin: intel
Setting up Verlet run ...
  Unit style    : lj
  Current step  : 0
  Time step     : 0.005
Per MPI rank memory allocation (min/avg/max) = 7439 | 7439 | 7439 Mbytes
Step Temp E_pair E_mol TotEng Press 
       0         1.44   -6.7769988            0   -4.6170013   -5.0197249 
     100   0.75926564   -5.7610955            0   -4.6221983    0.1924365 
Loop time of 26.7653 on 1 procs for 100 steps with 864000 atoms

Performance: 1614.032 tau/day, 3.736 timesteps/s
50.0% CPU use with 1 MPI tasks x 1 OpenMP threads

MPI task timing breakdown:
Section |  min time  |  avg time  |  max time  |%varavg| %total
---------------------------------------------------------------
Pair    | 21.419     | 21.419     | 21.419     |   0.0 | 80.03
Neigh   | 1.8377     | 1.8377     | 1.8377     |   0.0 |  6.87
Comm    | 1.1971     | 1.1971     | 1.1971     |   0.0 |  4.47
Output  | 0.0040271  | 0.0040271  | 0.0040271  |   0.0 |  0.02
Modify  | 1.952      | 1.952      | 1.952      |   0.0 |  7.29
Other   |            | 0.3554     |            |       |  1.33

Nlocal:         864000 ave      864000 max      864000 min
Histogram: 1 0 0 0 0 0 0 0 0 0
Nghost:         158253 ave      158253 max      158253 min
Histogram: 1 0 0 0 0 0 0 0 0 0
Neighs:    3.24498e+07 ave 3.24498e+07 max 3.24498e+07 min
Histogram: 1 0 0 0 0 0 0 0 0 0

Total # of neighbors = 32449779
Ave neighs/atom = 37.557615
Neighbor list builds = 5
Dangerous builds not checked
Total wall time: 0:00:27
Intel(R) VTune(TM) Profiler 2022.2.0 collection completed successfully. Use the "aps --report /home/ubuntu/lammps/bench/aps_result_20220531" command to generate textual and HTML reports for the profiling session.
