LAMMPS (7 Jan 2022)
  using 1 OpenMP thread(s) per MPI task
Lattice spacing in x,y,z = 1.6795962 1.6795962 1.6795962
Created orthogonal box = (0 0 0) to (33.591924 33.591924 33.591924)
  4 by 4 by 4 MPI processor grid
Created 32000 atoms
  using lattice units in orthogonal box = (0 0 0) to (33.591924 33.591924 33.591924)
  create_atoms CPU = 0.001 seconds
----------------------------------------------------------
Using INTEL Package without Coprocessor.
Compiler: Intel Classic C++ 20.21.5 / Intel(R) C++ g++ 9.3 mode
SIMD compiler directives: Enabled
Precision: single
----------------------------------------------------------
  generated 0 of 0 mixed pair_coeff terms from geometric mixing rule
Neighbor list info ...
  update every 20 steps, delay 0 steps, check no
  max neighbors/atom: 2000, page size: 100000
  master list distance cutoff = 2.8
  ghost atom cutoff = 2.8
  binsize = 1.4, bins = 24 24 24
  1 neighbor lists, perpetual/occasional/extra = 1 0 0
  (1) pair lj/cut/intel, perpetual
      attributes: half, newton on, intel
      pair build: half/bin/newton/intel
      stencil: half/bin/3d
      bin: intel
Setting up Verlet run ...
  Unit style    : lj
  Current step  : 0
  Time step     : 0.005
Per MPI rank memory allocation (min/avg/max) = 5.791 | 6.937 | 8.326 Mbytes
Step Temp E_pair E_mol TotEng Press 
       0         1.44   -6.7733739            0   -4.6134414   -5.0197081 
     100   0.75745333   -5.7585062            0   -4.6223617   0.20725964 
Loop time of 0.20432 on 64 procs for 100 steps with 32000 atoms

Performance: 211433.192 tau/day, 489.429 timesteps/s
70.1% CPU use with 64 MPI tasks x 1 OpenMP threads

MPI task timing breakdown:
Section |  min time  |  avg time  |  max time  |%varavg| %total
---------------------------------------------------------------
Pair    | 0.0070414  | 0.0080977  | 0.010594   |   0.7 |  3.96
Neigh   | 0.00086846 | 0.00099154 | 0.0011439  |   0.0 |  0.49
Comm    | 0.19191    | 0.19454    | 0.19568    |   0.2 | 95.21
Output  | 3.2621e-05 | 4.0814e-05 | 5.2773e-05 |   0.0 |  0.02
Modify  | 0.00043086 | 0.00049075 | 0.00058437 |   0.0 |  0.24
Other   |            | 0.0001609  |            |       |  0.08

Nlocal:            500 ave         526 max         476 min
Histogram: 2 0 6 12 16 13 4 6 3 2
Nghost:        1921.41 ave        1954 max        1890 min
Histogram: 2 3 3 10 13 17 8 5 2 1
Neighs:        18794.3 ave       20118 max       17506 min
Histogram: 2 3 4 9 21 10 5 3 4 3

Total # of neighbors = 1202835
Ave neighs/atom = 37.588594
Neighbor list builds = 5
Dangerous builds not checked
Total wall time: 0:00:00
Intel(R) VTune(TM) Profiler 2022.2.0 collection completed successfully. Use the "aps --report /home/ubuntu/lammps/bench/aps_result_20220531" command to generate textual and HTML reports for the profiling session.
