LAMMPS (7 Jan 2022)
  using 1 OpenMP thread(s) per MPI task
Lattice spacing in x,y,z = 1.6795962 1.6795962 1.6795962
Created orthogonal box = (0 0 0) to (33.591924 33.591924 33.591924)
  2 by 2 by 2 MPI processor grid
Created 32000 atoms
  using lattice units in orthogonal box = (0 0 0) to (33.591924 33.591924 33.591924)
  create_atoms CPU = 0.002 seconds
----------------------------------------------------------
Using INTEL Package without Coprocessor.
Compiler: Intel Classic C++ 20.21.5 / Intel(R) C++ g++ 9.3 mode
SIMD compiler directives: Enabled
Precision: single
----------------------------------------------------------
  generated 0 of 0 mixed pair_coeff terms from geometric mixing rule
Neighbor list info ...
  update every 20 steps, delay 0 steps, check no
  max neighbors/atom: 2000, page size: 100000
  master list distance cutoff = 2.8
  ghost atom cutoff = 2.8
  binsize = 1.4, bins = 24 24 24
  1 neighbor lists, perpetual/occasional/extra = 1 0 0
  (1) pair lj/cut/intel, perpetual
      attributes: half, newton on, intel
      pair build: half/bin/newton/intel
      stencil: half/bin/3d
      bin: intel
Setting up Verlet run ...
  Unit style    : lj
  Current step  : 0
  Time step     : 0.005
Per MPI rank memory allocation (min/avg/max) = 36.83 | 36.83 | 36.83 Mbytes
Step Temp E_pair E_mol TotEng Press 
       0         1.44   -6.7733616            0   -4.6134291   -5.0197067 
     100   0.75745334   -5.7585043            0   -4.6223598   0.20725942 
Loop time of 0.0988628 on 8 procs for 100 steps with 32000 atoms

Performance: 436969.297 tau/day, 1011.503 timesteps/s
97.0% CPU use with 8 MPI tasks x 1 OpenMP threads

MPI task timing breakdown:
Section |  min time  |  avg time  |  max time  |%varavg| %total
---------------------------------------------------------------
Pair    | 0.061029   | 0.063272   | 0.067117   |   0.9 | 64.00
Neigh   | 0.0065301  | 0.0066851  | 0.0070649  |   0.2 |  6.76
Comm    | 0.020029   | 0.023974   | 0.026483   |   1.6 | 24.25
Output  | 4.1581e-05 | 4.5286e-05 | 5.3031e-05 |   0.0 |  0.05
Modify  | 0.0035186  | 0.004039   | 0.0045146  |   0.6 |  4.09
Other   |            | 0.000847   |            |       |  0.86

Nlocal:           4000 ave        4033 max        3962 min
Histogram: 1 0 1 1 0 2 1 0 0 2
Nghost:        5756.75 ave        5804 max        5724 min
Histogram: 1 1 1 1 2 0 1 0 0 1
Neighs:         150354 ave      152935 max      147476 min
Histogram: 1 0 0 1 2 1 1 0 1 1

Total # of neighbors = 1202835
Ave neighs/atom = 37.588594
Neighbor list builds = 5
Dangerous builds not checked
Total wall time: 0:00:00
Intel(R) VTune(TM) Profiler 2022.2.0 collection completed successfully. Use the "aps --report /home/ubuntu/lammps/bench/aps_result_20220601" command to generate textual and HTML reports for the profiling session.
