LAMMPS (7 Jan 2022)
  using 1 OpenMP thread(s) per MPI task
Lattice spacing in x,y,z = 1.6795962 1.6795962 1.6795962
Created orthogonal box = (0 0 0) to (134.3677 134.3677 134.3677)
  2 by 2 by 2 MPI processor grid
Created 2048000 atoms
  using lattice units in orthogonal box = (0 0 0) to (134.3677 134.3677 134.3677)
  create_atoms CPU = 0.041 seconds
----------------------------------------------------------
Using INTEL Package without Coprocessor.
Compiler: Intel Classic C++ 20.21.5 / Intel(R) C++ g++ 9.3 mode
SIMD compiler directives: Enabled
Precision: double
----------------------------------------------------------
  generated 0 of 0 mixed pair_coeff terms from geometric mixing rule
Neighbor list info ...
  update every 20 steps, delay 0 steps, check no
  max neighbors/atom: 2000, page size: 100000
  master list distance cutoff = 2.8
  ghost atom cutoff = 2.8
  binsize = 1.4, bins = 96 96 96
  1 neighbor lists, perpetual/occasional/extra = 1 0 0
  (1) pair lj/cut/intel, perpetual
      attributes: half, newton on, intel
      pair build: half/bin/newton/intel
      stencil: half/bin/3d
      bin: intel
Setting up Verlet run ...
  Unit style    : lj
  Current step  : 0
  Time step     : 0.005
Per MPI rank memory allocation (min/avg/max) = 2222 | 2222 | 2222 Mbytes
Step Temp E_pair E_mol TotEng Press 
       0         1.44   -6.7733681            0   -4.6133691   -5.0196699 
     100   0.75921977   -5.7611315            0   -4.6223024   0.19208802 
Loop time of 5.14876 on 8 procs for 100 steps with 2048000 atoms

Performance: 8390.375 tau/day, 19.422 timesteps/s
97.8% CPU use with 8 MPI tasks x 1 OpenMP threads

MPI task timing breakdown:
Section |  min time  |  avg time  |  max time  |%varavg| %total
---------------------------------------------------------------
Pair    | 3.4876     | 3.6631     | 3.9298     |   7.7 | 71.15
Neigh   | 0.32645    | 0.33316    | 0.34323    |   1.1 |  6.47
Comm    | 0.38907    | 0.68014    | 0.87256    |  18.1 | 13.21
Output  | 0.00077707 | 0.0008511  | 0.0009433  |   0.0 |  0.02
Modify  | 0.37281    | 0.3952     | 0.41822    |   2.5 |  7.68
Other   |            | 0.07628    |            |       |  1.48

Nlocal:         256000 ave      256144 max      255896 min
Histogram: 2 0 1 0 2 2 0 0 0 1
Nghost:        72332.2 ave       72468 max       72200 min
Histogram: 2 0 0 0 1 3 0 0 1 1
Neighs:    9.61425e+06 ave 9.63428e+06 max 9.59988e+06 min
Histogram: 3 0 1 0 1 0 1 0 1 1

Total # of neighbors = 76914000
Ave neighs/atom = 37.555664
Neighbor list builds = 5
Dangerous builds not checked
Total wall time: 0:00:05
Intel(R) VTune(TM) Profiler 2022.2.0 collection completed successfully. Use the "aps --report /home/ubuntu/lammps/bench/aps_result_20220601" command to generate textual and HTML reports for the profiling session.
