LAMMPS (7 Jan 2022)
  using 1 OpenMP thread(s) per MPI task
Lattice spacing in x,y,z = 1.6795962 1.6795962 1.6795962
Created orthogonal box = (0 0 0) to (33.591924 33.591924 33.591924)
  1 by 2 by 2 MPI processor grid
Created 32000 atoms
  using lattice units in orthogonal box = (0 0 0) to (33.591924 33.591924 33.591924)
  create_atoms CPU = 0.003 seconds
----------------------------------------------------------
Using INTEL Package without Coprocessor.
Compiler: Intel Classic C++ 20.21.5 / Intel(R) C++ g++ 9.3 mode
SIMD compiler directives: Enabled
Precision: double
----------------------------------------------------------
  generated 0 of 0 mixed pair_coeff terms from geometric mixing rule
Neighbor list info ...
  update every 20 steps, delay 0 steps, check no
  max neighbors/atom: 2000, page size: 100000
  master list distance cutoff = 2.8
  ghost atom cutoff = 2.8
  binsize = 1.4, bins = 24 24 24
  1 neighbor lists, perpetual/occasional/extra = 1 0 0
  (1) pair lj/cut/intel, perpetual
      attributes: half, newton on, intel
      pair build: half/bin/newton/intel
      stencil: half/bin/3d
      bin: intel
Setting up Verlet run ...
  Unit style    : lj
  Current step  : 0
  Time step     : 0.005
Per MPI rank memory allocation (min/avg/max) = 73.17 | 73.17 | 73.17 Mbytes
Step Temp E_pair E_mol TotEng Press 
       0         1.44   -6.7733681            0   -4.6134356   -5.0197073 
     100    0.7574531   -5.7585055            0   -4.6223613   0.20726105 
Loop time of 0.190127 on 4 procs for 100 steps with 32000 atoms

Performance: 227216.020 tau/day, 525.963 timesteps/s
97.1% CPU use with 4 MPI tasks x 1 OpenMP threads

MPI task timing breakdown:
Section |  min time  |  avg time  |  max time  |%varavg| %total
---------------------------------------------------------------
Pair    | 0.1211     | 0.12935    | 0.13835    |   1.9 | 68.03
Neigh   | 0.013895   | 0.014132   | 0.014452   |   0.2 |  7.43
Comm    | 0.024096   | 0.033837   | 0.043909   |   4.1 | 17.80
Output  | 5.7562e-05 | 6.4562e-05 | 7.6482e-05 |   0.0 |  0.03
Modify  | 0.0091276  | 0.010404   | 0.011449   |   1.0 |  5.47
Other   |            | 0.002343   |            |       |  1.23

Nlocal:           8000 ave        8037 max        7964 min
Histogram: 2 0 0 0 0 0 0 0 1 1
Nghost:         9007.5 ave        9050 max        8968 min
Histogram: 1 1 0 0 0 0 0 1 0 1
Neighs:         300708 ave      305113 max      297203 min
Histogram: 1 0 0 1 1 0 0 0 0 1

Total # of neighbors = 1202833
Ave neighs/atom = 37.588531
Neighbor list builds = 5
Dangerous builds not checked
Total wall time: 0:00:00
Intel(R) VTune(TM) Profiler 2022.2.0 collection completed successfully. Use the "aps --report /home/ubuntu/lammps/bench/aps_result_20220601" command to generate textual and HTML reports for the profiling session.
