LAMMPS (7 Jan 2022)
  using 1 OpenMP thread(s) per MPI task
Lattice spacing in x,y,z = 1.6795962 1.6795962 1.6795962
Created orthogonal box = (0 0 0) to (33.591924 33.591924 33.591924)
  1 by 1 by 1 MPI processor grid
Created 32000 atoms
  using lattice units in orthogonal box = (0 0 0) to (33.591924 33.591924 33.591924)
  create_atoms CPU = 0.003 seconds
----------------------------------------------------------
Using INTEL Package without Coprocessor.
Compiler: Intel Classic C++ 20.21.5 / Intel(R) C++ g++ 9.3 mode
SIMD compiler directives: Enabled
Precision: single
----------------------------------------------------------
  generated 0 of 0 mixed pair_coeff terms from geometric mixing rule
Neighbor list info ...
  update every 20 steps, delay 0 steps, check no
  max neighbors/atom: 2000, page size: 100000
  master list distance cutoff = 2.8
  ghost atom cutoff = 2.8
  binsize = 1.4, bins = 24 24 24
  1 neighbor lists, perpetual/occasional/extra = 1 0 0
  (1) pair lj/cut/intel, perpetual
      attributes: half, newton on, intel
      pair build: half/bin/newton/intel
      stencil: half/bin/3d
      bin: intel
Setting up Verlet run ...
  Unit style    : lj
  Current step  : 0
  Time step     : 0.005
Per MPI rank memory allocation (min/avg/max) = 280 | 280 | 280 Mbytes
Step Temp E_pair E_mol TotEng Press 
       0         1.44   -6.7729844            0   -4.6130519   -5.0197018 
     100   0.75745339   -5.7585059            0   -4.6223613   0.20725817 
Loop time of 0.927802 on 1 procs for 100 steps with 32000 atoms

Performance: 46561.674 tau/day, 107.782 timesteps/s
50.0% CPU use with 1 MPI tasks x 1 OpenMP threads

MPI task timing breakdown:
Section |  min time  |  avg time  |  max time  |%varavg| %total
---------------------------------------------------------------
Pair    | 0.81641    | 0.81641    | 0.81641    |   0.0 | 87.99
Neigh   | 0.054002   | 0.054002   | 0.054002   |   0.0 |  5.82
Comm    | 0.031613   | 0.031613   | 0.031613   |   0.0 |  3.41
Output  | 6.3858e-05 | 6.3858e-05 | 6.3858e-05 |   0.0 |  0.01
Modify  | 0.020066   | 0.020066   | 0.020066   |   0.0 |  2.16
Other   |            | 0.005643   |            |       |  0.61

Nlocal:          32000 ave       32000 max       32000 min
Histogram: 1 0 0 0 0 0 0 0 0 0
Nghost:          19657 ave       19657 max       19657 min
Histogram: 1 0 0 0 0 0 0 0 0 0
Neighs:    1.20283e+06 ave 1.20283e+06 max 1.20283e+06 min
Histogram: 1 0 0 0 0 0 0 0 0 0

Total # of neighbors = 1202834
Ave neighs/atom = 37.588563
Neighbor list builds = 5
Dangerous builds not checked
Total wall time: 0:00:00
Intel(R) VTune(TM) Profiler 2022.2.0 collection completed successfully. Use the "aps --report /home/ubuntu/lammps/bench/aps_result_20220531" command to generate textual and HTML reports for the profiling session.
