LAMMPS (7 Jan 2022)
  using 1 OpenMP thread(s) per MPI task
New timer settings: style=full  mode=nosync  timeout=off
Lattice spacing in x,y,z = 1.6795962 1.6795962 1.6795962
Created orthogonal box = (0 0 0) to (134.3677 134.3677 134.3677)
  2 by 2 by 2 MPI processor grid
Created 2048000 atoms
  using lattice units in orthogonal box = (0 0 0) to (134.3677 134.3677 134.3677)
  create_atoms CPU = 0.042 seconds
----------------------------------------------------------
Using INTEL Package without Coprocessor.
Compiler: Intel Classic C++ 20.21.5 / Intel(R) C++ g++ 9.3 mode
SIMD compiler directives: Enabled
Precision: mixed
----------------------------------------------------------
  generated 0 of 0 mixed pair_coeff terms from geometric mixing rule
Neighbor list info ...
  update every 20 steps, delay 0 steps, check no
  max neighbors/atom: 2000, page size: 100000
  master list distance cutoff = 2.8
  ghost atom cutoff = 2.8
  binsize = 1.4, bins = 96 96 96
  1 neighbor lists, perpetual/occasional/extra = 1 0 0
  (1) pair lj/cut/intel, perpetual
      attributes: half, newton on, intel
      pair build: half/bin/newton/intel
      stencil: half/bin/3d
      bin: intel
Setting up Verlet run ...
  Unit style    : lj
  Current step  : 0
  Time step     : 0.005
Per MPI rank memory allocation (min/avg/max) = 2217 | 2217 | 2217 Mbytes
Step Temp E_pair E_mol TotEng Press 
       0         1.44   -6.7733683            0   -4.6133693   -5.0196694 
     100   0.75921979   -5.7611316            0   -4.6223025   0.19208794 
Loop time of 5.25485 on 8 procs for 100 steps with 2048000 atoms

Performance: 8220.973 tau/day, 19.030 timesteps/s
98.5% CPU use with 8 MPI tasks x 1 OpenMP threads

MPI task timing breakdown:
Section |  min time  |  avg time  |  max time  |%varavg|  %CPU | %total
-----------------------------------------------------------------------
Pair    | 3.8551     | 3.9134     | 4.0275     |   3.2 |  99.7 | 74.47
Neigh   | 0.30118    | 0.30803    | 0.3215     |   1.3 |  99.8 |  5.86
Comm    | 0.3801     | 0.5352     | 0.60742    |  11.1 |  90.7 | 10.18
Output  | 0.00079694 | 0.00083345 | 0.00090852 |   0.0 | 100.0 |  0.02
Modify  | 0.39941    | 0.41757    | 0.44082    |   2.2 |  97.8 |  7.95
Other   |            | 0.07987    |            |       |       |  1.52

Nlocal:         256000 ave      256144 max      255896 min
Histogram: 2 0 1 0 2 2 0 0 0 1
Nghost:        72332.1 ave       72467 max       72200 min
Histogram: 2 0 0 0 1 3 0 0 1 1
Neighs:    9.61425e+06 ave 9.63427e+06 max 9.59987e+06 min
Histogram: 3 0 1 0 1 0 1 0 1 1

Total # of neighbors = 76914004
Ave neighs/atom = 37.555666
Neighbor list builds = 5
Dangerous builds not checked
Total wall time: 0:00:05
Intel(R) VTune(TM) Profiler 2022.2.0 collection completed successfully. Use the "aps --report /home/ubuntu/lammps/bench/aps_result_20220519" command to generate textual and HTML reports for the profiling session.
