LAMMPS (7 Jan 2022)
  using 1 OpenMP thread(s) per MPI task
New timer settings: style=full  mode=nosync  timeout=off
Lattice spacing in x,y,z = 1.6795962 1.6795962 1.6795962
Created orthogonal box = (0 0 0) to (67.183848 67.183848 67.183848)
  1 by 1 by 2 MPI processor grid
Created 256000 atoms
  using lattice units in orthogonal box = (0 0 0) to (67.183848 67.183848 67.183848)
  create_atoms CPU = 0.027 seconds
----------------------------------------------------------
Using INTEL Package without Coprocessor.
Compiler: Intel Classic C++ 20.21.5 / Intel(R) C++ g++ 9.3 mode
SIMD compiler directives: Enabled
Precision: mixed
----------------------------------------------------------
  generated 0 of 0 mixed pair_coeff terms from geometric mixing rule
Neighbor list info ...
  update every 20 steps, delay 0 steps, check no
  max neighbors/atom: 2000, page size: 100000
  master list distance cutoff = 2.8
  ghost atom cutoff = 2.8
  binsize = 1.4, bins = 48 48 48
  1 neighbor lists, perpetual/occasional/extra = 1 0 0
  (1) pair lj/cut/intel, perpetual
      attributes: half, newton on, intel
      pair build: half/bin/newton/intel
      stencil: half/bin/3d
      bin: intel
Setting up Verlet run ...
  Unit style    : lj
  Current step  : 0
  Time step     : 0.005
Per MPI rank memory allocation (min/avg/max) = 1112 | 1112 | 1112 Mbytes
Step Temp E_pair E_mol TotEng Press 
       0         1.44   -6.7733683            0   -4.6133767   -5.0196736 
     100   0.75865619   -5.7603259            0    -4.622346   0.19586098 
Loop time of 2.97625 on 2 procs for 100 steps with 256000 atoms

Performance: 14514.908 tau/day, 33.599 timesteps/s
96.8% CPU use with 2 MPI tasks x 1 OpenMP threads

MPI task timing breakdown:
Section |  min time  |  avg time  |  max time  |%varavg|  %CPU | %total
-----------------------------------------------------------------------
Pair    | 2.2157     | 2.2579     | 2.3        |   2.8 |  97.4 | 75.86
Neigh   | 0.1798     | 0.18627    | 0.19274    |   1.5 |  97.5 |  6.26
Comm    | 0.1856     | 0.23948    | 0.29335    |  11.0 |  93.3 |  8.05
Output  | 0.00031907 | 0.00037055 | 0.00042203 |   0.0 | 100.0 |  0.01
Modify  | 0.2419     | 0.24581    | 0.24971    |   0.8 |  94.9 |  8.26
Other   |            | 0.04645    |            |       |       |  1.56

Nlocal:         128000 ave      128003 max      127997 min
Histogram: 1 0 0 0 0 0 0 0 0 1
Nghost:          49205 ave       49206 max       49204 min
Histogram: 1 0 0 0 0 0 0 0 0 1
Neighs:    4.80697e+06 ave 4.81938e+06 max 4.79456e+06 min
Histogram: 1 0 0 0 0 0 0 0 0 1

Total # of neighbors = 9613939
Ave neighs/atom = 37.554449
Neighbor list builds = 5
Dangerous builds not checked
Total wall time: 0:00:03
Intel(R) VTune(TM) Profiler 2022.2.0 collection completed successfully. Use the "aps --report /home/ubuntu/lammps/bench/aps_result_20220519" command to generate textual and HTML reports for the profiling session.
