LAMMPS (7 Jan 2022)
  using 1 OpenMP thread(s) per MPI task
Lattice spacing in x,y,z = 1.6795962 1.6795962 1.6795962
Created orthogonal box = (0 0 0) to (100.77577 100.77577 100.77577)
  4 by 4 by 4 MPI processor grid
Created 864000 atoms
  using lattice units in orthogonal box = (0 0 0) to (100.77577 100.77577 100.77577)
  create_atoms CPU = 0.003 seconds
----------------------------------------------------------
Using INTEL Package without Coprocessor.
Compiler: Intel Classic C++ 20.21.5 / Intel(R) C++ g++ 9.3 mode
SIMD compiler directives: Enabled
Precision: mixed
----------------------------------------------------------
  generated 0 of 0 mixed pair_coeff terms from geometric mixing rule
Neighbor list info ...
  update every 20 steps, delay 0 steps, check no
  max neighbors/atom: 2000, page size: 100000
  master list distance cutoff = 2.8
  ghost atom cutoff = 2.8
  binsize = 1.4, bins = 72 72 72
  1 neighbor lists, perpetual/occasional/extra = 1 0 0
  (1) pair lj/cut/intel, perpetual
      attributes: half, newton on, intel
      pair build: half/bin/newton/intel
      stencil: half/bin/3d
      bin: intel
Setting up Verlet run ...
  Unit style    : lj
  Current step  : 0
  Time step     : 0.005
Per MPI rank memory allocation (min/avg/max) = 119.7 | 119.7 | 119.7 Mbytes
Step Temp E_pair E_mol TotEng Press 
       0         1.44   -6.7733674            0   -4.6133699   -5.0196712 
   10000   0.69716455   -5.6668683            0   -4.6211227   0.74775734 
Loop time of 33.0711 on 64 procs for 10000 steps with 864000 atoms

Performance: 130627.703 tau/day, 302.379 timesteps/s
98.1% CPU use with 64 MPI tasks x 1 OpenMP threads

MPI task timing breakdown:
Section |  min time  |  avg time  |  max time  |%varavg| %total
---------------------------------------------------------------
Pair    | 21.491     | 21.867     | 22.257     |   4.3 | 66.12
Neigh   | 1.859      | 1.9061     | 1.9752     |   2.0 |  5.76
Comm    | 5.0578     | 5.5935     | 6.0911     |  10.6 | 16.91
Output  | 0.0001294  | 0.00015074 | 0.00019452 |   0.0 |  0.00
Modify  | 2.7081     | 2.9895     | 3.2315     |   6.3 |  9.04
Other   |            | 0.7147     |            |       |  2.16

Nlocal:          13500 ave       13569 max       13436 min
Histogram: 3 4 3 10 13 12 12 6 0 1
Nghost:        11145.7 ave       11215 max       11056 min
Histogram: 2 1 5 5 11 8 16 9 5 2
Neighs:         506313 ave      512073 max      498810 min
Histogram: 1 2 1 5 11 17 13 7 6 1

Total # of neighbors = 32404037
Ave neighs/atom = 37.504672
Neighbor list builds = 500
Dangerous builds not checked
Total wall time: 0:00:33
Intel(R) VTune(TM) Profiler 2022.2.0 collection completed successfully. Use the "aps --report /home/ubuntu/lammps/bench/aps_result_20220702" command to generate textual and HTML reports for the profiling session.
