LAMMPS (7 Jan 2022)
  using 1 OpenMP thread(s) per MPI task
Reading data file ...
  orthogonal box = (-27.5 -38.5 -36.3646) to (27.5 38.5 36.3615)
  2 by 4 by 2 MPI processor grid
  reading atoms ...
  32000 atoms
  reading velocities ...
  32000 velocities
  scanning bonds ...
  4 = max bonds/atom
  scanning angles ...
  8 = max angles/atom
  scanning dihedrals ...
  18 = max dihedrals/atom
  scanning impropers ...
  2 = max impropers/atom
  reading bonds ...
  27723 bonds
  reading angles ...
  40467 angles
  reading dihedrals ...
  56829 dihedrals
  reading impropers ...
  1034 impropers
Finding 1-2 1-3 1-4 neighbors ...
  special bond factors lj:    0        0        0       
  special bond factors coul:  0        0        0       
     4 = max # of 1-2 neighbors
    12 = max # of 1-3 neighbors
    24 = max # of 1-4 neighbors
    26 = max # of special neighbors
  special bonds CPU = 0.355 seconds
  read_data CPU = 2.100 seconds
Replicating atoms ...
  orthogonal box = (-27.5 -38.5 -36.3646) to (137.5 192.5 181.8137)
  2 by 4 by 2 MPI processor grid
  864000 atoms
  748521 bonds
  1092609 angles
  1534383 dihedrals
  27918 impropers
Finding 1-2 1-3 1-4 neighbors ...
  special bond factors lj:    0        0        0       
  special bond factors coul:  0        0        0       
     4 = max # of 1-2 neighbors
    12 = max # of 1-3 neighbors
    24 = max # of 1-4 neighbors
    26 = max # of special neighbors
  special bonds CPU = 0.107 seconds
  replicate CPU = 0.627 seconds
Finding SHAKE clusters ...
   43659 = # of size 2 clusters
   98091 = # of size 3 clusters
   20169 = # of size 4 clusters
  114291 = # of frozen angles
  find clusters CPU = 0.216 seconds
PPPM initialization ...
  using 12-bit tables for long-range coulomb (../kspace.cpp:340)
  G vector (1/distance) = 0.25235202
  grid = 72 90 90
  stencil order = 7
  estimated absolute RMS force accuracy = 0.029803316
  estimated relative force accuracy = 8.9751802e-05
  using single precision MKL FFT
  3d grid and FFT values/proc = 67080 38880
----------------------------------------------------------
Using INTEL Package without Coprocessor.
Compiler: Intel Classic C++ 20.21.5 / Intel(R) C++ g++ 9.3 mode
SIMD compiler directives: Enabled
Precision: single
----------------------------------------------------------
  generated 2278 of 2278 mixed pair_coeff terms from arithmetic mixing rule
Neighbor list info ...
  update every 1 steps, delay 5 steps, check yes
  max neighbors/atom: 2000, page size: 100000
  master list distance cutoff = 12
  ghost atom cutoff = 12
  binsize = 6, bins = 28 39 37
  1 neighbor lists, perpetual/occasional/extra = 1 0 0
  (1) pair lj/charmm/coul/long/intel, perpetual
      attributes: half, newton on, intel
      pair build: half/bin/newton/intel
      stencil: half/bin/3d
      bin: intel
Setting up Verlet run ...
  Unit style    : real
  Current step  : 0
  Time step     : 2
Per MPI rank memory allocation (min/avg/max) = 609.1 | 611.8 | 614.4 Mbytes
---------------- Step        0 ----- CPU =      0.0000 (sec) ----------------
TotEng   =   -684676.3535 KinEng   =    579010.4447 Temp     =       299.0277 
PotEng   =  -1263686.7982 E_bond   =     68525.6853 E_angle  =    294877.1387 
E_dihed  =    140718.1953 E_impro  =      5764.8968 E_vdwl   =    -62312.4470 
E_coul   =   5692533.2070 E_long   =  -7403793.4743 Press    =      -148.6861 
Volume   =   8315865.9045 
---------------- Step       50 ----- CPU =     14.5062 (sec) ----------------
TotEng   =   -683932.9033 KinEng   =    580526.0439 Temp     =       299.8104 
PotEng   =  -1264458.9473 E_bond   =     66737.3616 E_angle  =    292591.3398 
E_dihed  =    141470.5791 E_impro  =      6132.4493 E_vdwl   =    -53811.2527 
E_coul   =   5686405.7428 E_long   =  -7403985.1672 Press    =       238.9008 
Volume   =   8316862.5342 
---------------- Step      100 ----- CPU =     27.9978 (sec) ----------------
TotEng   =   -682820.5962 KinEng   =    582915.4214 Temp     =       301.0444 
PotEng   =  -1265736.0176 E_bond   =     69335.1118 E_angle  =    291121.2383 
E_dihed  =    140366.1875 E_impro  =      5852.7598 E_vdwl   =    -51271.0347 
E_coul   =   5682704.4561 E_long   =  -7403844.7364 Press    =        14.5791 
Volume   =   8319655.9273 
Loop time of 27.9978 on 16 procs for 100 steps with 864000 atoms

Performance: 0.617 ns/day, 38.886 hours/ns, 3.572 timesteps/s
82.1% CPU use with 16 MPI tasks x 1 OpenMP threads

MPI task timing breakdown:
Section |  min time  |  avg time  |  max time  |%varavg| %total
---------------------------------------------------------------
Pair    | 6.9936     | 7.9442     | 13.872     |  78.6 | 28.37
Bond    | 0.38481    | 0.43572    | 0.74223    |  16.9 |  1.56
Kspace  | 5.3546     | 11.453     | 12.697     |  68.3 | 40.91
Neigh   | 2.1514     | 2.1865     | 2.1996     |   0.9 |  7.81
Comm    | 1.5429     | 1.8534     | 2.1204     |  12.5 |  6.62
Output  | 0.00025545 | 0.00026565 | 0.00034276 |   0.0 |  0.00
Modify  | 3.5442     | 3.6742     | 3.7576     |   3.1 | 13.12
Other   |            | 0.4508     |            |       |  1.61

Nlocal:          54000 ave       54284 max       53648 min
Histogram: 1 1 0 2 4 2 2 0 1 3
Nghost:        65881.1 ave       66337 max       65444 min
Histogram: 1 2 1 2 3 1 2 2 1 1
Neighs:    2.02974e+07 ave 2.05084e+07 max 2.00558e+07 min
Histogram: 2 0 1 1 3 3 1 3 0 2

Total # of neighbors = 3.2475858e+08
Ave neighs/atom = 375.87799
Ave special neighs/atom = 7.431875
Neighbor list builds = 11
Dangerous builds = 0
Total wall time: 0:00:32
Intel(R) VTune(TM) Profiler 2022.2.0 collection completed successfully. Use the "aps --report /home/ubuntu/lammps/bench/aps_result_20220531" command to generate textual and HTML reports for the profiling session.
