LAMMPS (7 Jan 2022)
  using 1 OpenMP thread(s) per MPI task
Reading data file ...
  orthogonal box = (-27.5 -38.5 -36.3646) to (27.5 38.5 36.3615)
  2 by 2 by 2 MPI processor grid
  reading atoms ...
  32000 atoms
  reading velocities ...
  32000 velocities
  scanning bonds ...
  4 = max bonds/atom
  scanning angles ...
  8 = max angles/atom
  scanning dihedrals ...
  18 = max dihedrals/atom
  scanning impropers ...
  2 = max impropers/atom
  reading bonds ...
  27723 bonds
  reading angles ...
  40467 angles
  reading dihedrals ...
  56829 dihedrals
  reading impropers ...
  1034 impropers
Finding 1-2 1-3 1-4 neighbors ...
  special bond factors lj:    0        0        0       
  special bond factors coul:  0        0        0       
     4 = max # of 1-2 neighbors
    12 = max # of 1-3 neighbors
    24 = max # of 1-4 neighbors
    26 = max # of special neighbors
  special bonds CPU = 0.006 seconds
  read_data CPU = 0.236 seconds
Replicating atoms ...
  orthogonal box = (-27.5 -38.5 -36.3646) to (192.5 269.5 254.5398)
  2 by 2 by 2 MPI processor grid
  2048000 atoms
  1774272 bonds
  2589888 angles
  3637056 dihedrals
  66176 impropers
Finding 1-2 1-3 1-4 neighbors ...
  special bond factors lj:    0        0        0       
  special bond factors coul:  0        0        0       
     4 = max # of 1-2 neighbors
    12 = max # of 1-3 neighbors
    24 = max # of 1-4 neighbors
    26 = max # of special neighbors
  special bonds CPU = 0.246 seconds
  replicate CPU = 0.416 seconds
Finding SHAKE clusters ...
  103488 = # of size 2 clusters
  232512 = # of size 3 clusters
   47808 = # of size 4 clusters
  270912 = # of frozen angles
  find clusters CPU = 0.113 seconds
PPPM initialization ...
  using 12-bit tables for long-range coulomb (../kspace.cpp:340)
  G vector (1/distance) = 0.28975108
  grid = 128 180 160
  stencil order = 7
  estimated absolute RMS force accuracy = 0.0039244534
  estimated relative force accuracy = 1.1818375e-05
  using single precision MKL FFT
  3d grid and FFT values/proc = 643203 460800
----------------------------------------------------------
Using INTEL Package without Coprocessor.
Compiler: Intel Classic C++ 20.21.5 / Intel(R) C++ g++ 9.3 mode
SIMD compiler directives: Enabled
Precision: mixed
----------------------------------------------------------
  generated 2278 of 2278 mixed pair_coeff terms from arithmetic mixing rule
Neighbor list info ...
  update every 1 steps, delay 5 steps, check yes
  max neighbors/atom: 2000, page size: 100000
  master list distance cutoff = 12
  ghost atom cutoff = 12
  binsize = 6, bins = 37 52 49
  1 neighbor lists, perpetual/occasional/extra = 1 0 0
  (1) pair lj/charmm/coul/long/intel, perpetual
      attributes: half, newton on, intel
      pair build: half/bin/newton/intel
      stencil: half/bin/3d
      bin: intel
Setting up Verlet run ...
  Unit style    : real
  Current step  : 0
  Time step     : 2
Per MPI rank memory allocation (min/avg/max) = 2713 | 2713 | 2713 Mbytes
---------------- Step        0 ----- CPU =      0.0000 (sec) ----------------
TotEng   =  -1622981.6058 KinEng   =   1372469.2022 Temp     =       299.0274 
PotEng   =  -2995450.8080 E_bond   =    162431.7410 E_angle  =    698967.9457 
E_dihed  =    333554.2808 E_impro  =     13664.8915 E_vdwl   =   -147703.2770 
E_coul   =  16082009.6966 E_long   = -20138376.0866 Press    =      -152.4314 
Volume   =  19711682.1440 
---------------- Step       50 ----- CPU =     29.8835 (sec) ----------------
TotEng   =  -1621306.6037 KinEng   =   1376080.7534 Temp     =       299.8143 
PotEng   =  -2997387.3571 E_bond   =    158188.2403 E_angle  =    693553.1583 
E_dihed  =    335327.5742 E_impro  =     14536.7977 E_vdwl   =   -127532.4148 
E_coul   =  16067598.0467 E_long   = -20139058.7596 Press    =       235.1538 
Volume   =  19713998.0163 
---------------- Step      100 ----- CPU =     60.1533 (sec) ----------------
TotEng   =  -1618418.6269 KinEng   =   1381780.6890 Temp     =       301.0562 
PotEng   =  -3000199.3159 E_bond   =    164348.2062 E_angle  =    690028.2782 
E_dihed  =    332711.7057 E_impro  =     13873.3916 E_vdwl   =   -121634.5381 
E_coul   =  16059104.9086 E_long   = -20138631.2681 Press    =        12.3755 
Volume   =  19720507.7623 
Loop time of 60.1534 on 8 procs for 100 steps with 2048000 atoms

Performance: 0.287 ns/day, 83.546 hours/ns, 1.662 timesteps/s
99.3% CPU use with 8 MPI tasks x 1 OpenMP threads

MPI task timing breakdown:
Section |  min time  |  avg time  |  max time  |%varavg| %total
---------------------------------------------------------------
Pair    | 34.937     | 35.148     | 35.62      |   3.4 | 58.43
Bond    | 2.2097     | 2.2224     | 2.2511     |   0.9 |  3.69
Kspace  | 9.1044     | 9.5653     | 9.7724     |   6.3 | 15.90
Neigh   | 4.2393     | 4.2429     | 4.2465     |   0.1 |  7.05
Comm    | 1.8981     | 1.9092     | 1.9194     |   0.5 |  3.17
Output  | 0.00094835 | 0.00097825 | 0.0010392  |   0.0 |  0.00
Modify  | 6.8512     | 6.8691     | 6.8875     |   0.5 | 11.42
Other   |            | 0.1958     |            |       |  0.33

Nlocal:         256000 ave      256000 max      256000 min
Histogram: 8 0 0 0 0 0 0 0 0 0
Nghost:         163317 ave      163317 max      163317 min
Histogram: 8 0 0 0 0 0 0 0 0 0
Neighs:    9.62243e+07 ave 9.63355e+07 max 9.61131e+07 min
Histogram: 4 0 0 0 0 0 0 0 0 4

Total # of neighbors = 7.6979429e+08
Ave neighs/atom = 375.87612
Ave special neighs/atom = 7.431875
Neighbor list builds = 11
Dangerous builds = 0
Total wall time: 0:01:02
Intel(R) VTune(TM) Profiler 2022.2.0 collection completed successfully. Use the "aps --report /home/ubuntu/lammps/bench/aps_result_20220530" command to generate textual and HTML reports for the profiling session.
