LAMMPS (7 Jan 2022)
  using 1 OpenMP thread(s) per MPI task
Reading data file ...
  orthogonal box = (-27.5 -38.5 -36.3646) to (27.5 38.5 36.3615)
  1 by 2 by 2 MPI processor grid
  reading atoms ...
  32000 atoms
  reading velocities ...
  32000 velocities
  scanning bonds ...
  4 = max bonds/atom
  scanning angles ...
  8 = max angles/atom
  scanning dihedrals ...
  18 = max dihedrals/atom
  scanning impropers ...
  2 = max impropers/atom
  reading bonds ...
  27723 bonds
  reading angles ...
  40467 angles
  reading dihedrals ...
  56829 dihedrals
  reading impropers ...
  1034 impropers
Finding 1-2 1-3 1-4 neighbors ...
  special bond factors lj:    0        0        0       
  special bond factors coul:  0        0        0       
     4 = max # of 1-2 neighbors
    12 = max # of 1-3 neighbors
    24 = max # of 1-4 neighbors
    26 = max # of special neighbors
  special bonds CPU = 0.019 seconds
  read_data CPU = 0.383 seconds
Replicating atoms ...
  orthogonal box = (-27.5 -38.5 -36.3646) to (192.5 269.5 254.5398)
  1 by 2 by 2 MPI processor grid
  2048000 atoms
  1774272 bonds
  2589888 angles
  3637056 dihedrals
  66176 impropers
Finding 1-2 1-3 1-4 neighbors ...
  special bond factors lj:    0        0        0       
  special bond factors coul:  0        0        0       
     4 = max # of 1-2 neighbors
    12 = max # of 1-3 neighbors
    24 = max # of 1-4 neighbors
    26 = max # of special neighbors
  special bonds CPU = 0.544 seconds
  replicate CPU = 0.993 seconds
Finding SHAKE clusters ...
  103488 = # of size 2 clusters
  232512 = # of size 3 clusters
   47808 = # of size 4 clusters
  270912 = # of frozen angles
  find clusters CPU = 0.280 seconds
PPPM initialization ...
  using 12-bit tables for long-range coulomb (../kspace.cpp:340)
  G vector (1/distance) = 0.25045586
  grid = 90 120 120
  stencil order = 7
  estimated absolute RMS force accuracy = 0.032785255
  estimated relative force accuracy = 9.8731821e-05
  using single precision MKL FFT
  3d grid and FFT values/proc = 435433 324000
----------------------------------------------------------
Using INTEL Package without Coprocessor.
Compiler: Intel Classic C++ 20.21.5 / Intel(R) C++ g++ 9.3 mode
SIMD compiler directives: Enabled
Precision: mixed
----------------------------------------------------------
  generated 2278 of 2278 mixed pair_coeff terms from arithmetic mixing rule
Neighbor list info ...
  update every 1 steps, delay 5 steps, check yes
  max neighbors/atom: 2000, page size: 100000
  master list distance cutoff = 12
  ghost atom cutoff = 12
  binsize = 6, bins = 37 52 49
  1 neighbor lists, perpetual/occasional/extra = 1 0 0
  (1) pair lj/charmm/coul/long/intel, perpetual
      attributes: half, newton on, intel
      pair build: half/bin/newton/intel
      stencil: half/bin/3d
      bin: intel
Setting up Verlet run ...
  Unit style    : real
  Current step  : 0
  Time step     : 2
Per MPI rank memory allocation (min/avg/max) = 5275 | 5275 | 5275 Mbytes
---------------- Step        0 ----- CPU =      0.0000 (sec) ----------------
TotEng   =  -1622915.6807 KinEng   =   1372469.2022 Temp     =       299.0274 
PotEng   =  -2995384.8829 E_bond   =    162431.7410 E_angle  =    698967.9457 
E_dihed  =    333554.2808 E_impro  =     13664.8915 E_vdwl   =   -147703.2770 
E_coul   =  13362001.3159 E_long   = -17418301.7808 Press    =      -148.3958 
Volume   =  19711682.1440 
---------------- Step       50 ----- CPU =    105.1672 (sec) ----------------
TotEng   =  -1621183.9126 KinEng   =   1376067.6303 Temp     =       299.8114 
PotEng   =  -2997251.5430 E_bond   =    158193.0898 E_angle  =    693548.5177 
E_dihed  =    335338.8870 E_impro  =     14535.9409 E_vdwl   =   -127558.7809 
E_coul   =  13347432.6927 E_long   = -17418741.8903 Press    =       238.9850 
Volume   =  19714046.0006 
---------------- Step      100 ----- CPU =    212.5168 (sec) ----------------
TotEng   =  -1618557.7039 KinEng   =   1381768.5543 Temp     =       301.0535 
PotEng   =  -3000326.2582 E_bond   =    164353.1719 E_angle  =    690067.2412 
E_dihed  =    332721.4500 E_impro  =     13872.8639 E_vdwl   =   -121547.6825 
E_coul   =  13338615.9772 E_long   = -17418409.2797 Press    =        13.8303 
Volume   =  19720671.8929 
Loop time of 212.517 on 4 procs for 100 steps with 2048000 atoms

Performance: 0.081 ns/day, 295.162 hours/ns, 0.471 timesteps/s
78.1% CPU use with 4 MPI tasks x 1 OpenMP threads

MPI task timing breakdown:
Section |  min time  |  avg time  |  max time  |%varavg| %total
---------------------------------------------------------------
Pair    | 69.641     | 87.497     | 140.33     | 326.1 | 41.17
Bond    | 4.2742     | 5.464      | 8.6556     |  78.9 |  2.57
Kspace  | 21.958     | 78.157     | 97.107     | 367.0 | 36.78
Neigh   | 16.49      | 16.665     | 16.729     |   2.5 |  7.84
Comm    | 7.2138     | 8.3048     | 8.7009     |  21.9 |  3.91
Output  | 0.018134   | 0.018365   | 0.018458   |   0.1 |  0.01
Modify  | 13.822     | 14.691     | 17.167     |  37.3 |  6.91
Other   |            | 1.72       |            |       |  0.81

Nlocal:         512000 ave      512000 max      512000 min
Histogram: 4 0 0 0 0 0 0 0 0 0
Nghost:         251461 ave      251461 max      251461 min
Histogram: 4 0 0 0 0 0 0 0 0 0
Neighs:    1.92449e+08 ave 1.92671e+08 max 1.92226e+08 min
Histogram: 2 0 0 0 0 0 0 0 0 2

Total # of neighbors = 7.697942e+08
Ave neighs/atom = 375.87607
Ave special neighs/atom = 7.431875
Neighbor list builds = 11
Dangerous builds = 0
Total wall time: 0:03:39
Intel(R) VTune(TM) Profiler 2022.2.0 collection completed successfully. Use the "aps --report /home/ubuntu/lammps/bench/aps_result_20220526" command to generate textual and HTML reports for the profiling session.
