LAMMPS (7 Jan 2022)
  using 1 OpenMP thread(s) per MPI task
Reading data file ...
  orthogonal box = (-27.5 -38.5 -36.3646) to (27.5 38.5 36.3615)
  2 by 4 by 2 MPI processor grid
  reading atoms ...
  32000 atoms
  reading velocities ...
  32000 velocities
  scanning bonds ...
  4 = max bonds/atom
  scanning angles ...
  8 = max angles/atom
  scanning dihedrals ...
  18 = max dihedrals/atom
  scanning impropers ...
  2 = max impropers/atom
  reading bonds ...
  27723 bonds
  reading angles ...
  40467 angles
  reading dihedrals ...
  56829 dihedrals
  reading impropers ...
  1034 impropers
Finding 1-2 1-3 1-4 neighbors ...
  special bond factors lj:    0        0        0       
  special bond factors coul:  0        0        0       
     4 = max # of 1-2 neighbors
    12 = max # of 1-3 neighbors
    24 = max # of 1-4 neighbors
    26 = max # of special neighbors
  special bonds CPU = 0.004 seconds
  read_data CPU = 0.236 seconds
Replicating atoms ...
  orthogonal box = (-27.5 -38.5 -36.3646) to (82.5 115.5 109.0876)
  2 by 4 by 2 MPI processor grid
  256000 atoms
  221784 bonds
  323736 angles
  454632 dihedrals
  8272 impropers
Finding 1-2 1-3 1-4 neighbors ...
  special bond factors lj:    0        0        0       
  special bond factors coul:  0        0        0       
     4 = max # of 1-2 neighbors
    12 = max # of 1-3 neighbors
    24 = max # of 1-4 neighbors
    26 = max # of special neighbors
  special bonds CPU = 0.016 seconds
  replicate CPU = 0.048 seconds
Finding SHAKE clusters ...
   12936 = # of size 2 clusters
   29064 = # of size 3 clusters
    5976 = # of size 4 clusters
   33864 = # of frozen angles
  find clusters CPU = 0.008 seconds
PPPM initialization ...
  using 12-bit tables for long-range coulomb (../kspace.cpp:340)
  G vector (1/distance) = 0.25045586
  grid = 45 60 60
  stencil order = 7
  estimated absolute RMS force accuracy = 0.032785255
  estimated relative force accuracy = 9.8731821e-05
  using single precision MKL FFT
  3d grid and FFT values/proc = 24420 10800
----------------------------------------------------------
Using INTEL Package without Coprocessor.
Compiler: Intel Classic C++ 20.21.5 / Intel(R) C++ g++ 9.3 mode
SIMD compiler directives: Enabled
Precision: mixed
----------------------------------------------------------
  generated 2278 of 2278 mixed pair_coeff terms from arithmetic mixing rule
Neighbor list info ...
  update every 1 steps, delay 5 steps, check yes
  max neighbors/atom: 2000, page size: 100000
  master list distance cutoff = 12
  ghost atom cutoff = 12
  binsize = 6, bins = 19 26 25
  1 neighbor lists, perpetual/occasional/extra = 1 0 0
  (1) pair lj/charmm/coul/long/intel, perpetual
      attributes: half, newton on, intel
      pair build: half/bin/newton/intel
      stencil: half/bin/3d
      bin: intel
Setting up Verlet run ...
  Unit style    : real
  Current step  : 0
  Time step     : 2
Per MPI rank memory allocation (min/avg/max) = 211.1 | 212 | 212.8 Mbytes
---------------- Step        0 ----- CPU =      0.0000 (sec) ----------------
TotEng   =   -202864.5380 KinEng   =    171558.6503 Temp     =       299.0288 
PotEng   =   -374423.1883 E_bond   =     20303.9370 E_angle  =     87370.9630 
E_dihed  =     41694.2900 E_impro  =      1708.1116 E_vdwl   =    -18462.9090 
E_coul   =   1670250.1020 E_long   =  -2177287.6828 Press    =      -148.4154 
Volume   =   2463960.2680 
---------------- Step       50 ----- CPU =      2.2689 (sec) ----------------
TotEng   =   -202648.9053 KinEng   =    172007.9732 Temp     =       299.8120 
PotEng   =   -374656.8784 E_bond   =     19774.0899 E_angle  =     86693.3964 
E_dihed  =     41917.3525 E_impro  =      1816.9821 E_vdwl   =    -15944.9423 
E_coul   =   1668429.0188 E_long   =  -2177342.7759 Press    =       238.9868 
Volume   =   2464255.7505 
---------------- Step      100 ----- CPU =      4.1225 (sec) ----------------
TotEng   =   -202321.9599 KinEng   =    172720.0216 Temp     =       301.0531 
PotEng   =   -375041.9815 E_bond   =     20544.0534 E_angle  =     86258.0452 
E_dihed  =     41590.0880 E_impro  =      1734.0851 E_vdwl   =    -15193.5767 
E_coul   =   1667326.4931 E_long   =  -2177301.1696 Press    =        13.7620 
Volume   =   2465083.9255 
---------------- Step      150 ----- CPU =      5.8778 (sec) ----------------
TotEng   =   -202065.0588 KinEng   =    172251.7807 Temp     =       300.2369 
PotEng   =   -374316.8395 E_bond   =     20454.1710 E_angle  =     86834.8936 
E_dihed  =     42116.9083 E_impro  =      1624.6003 E_vdwl   =    -16578.4709 
E_coul   =   1668456.6600 E_long   =  -2177225.6017 Press    =       245.4926 
Volume   =   2468149.4497 
---------------- Step      200 ----- CPU =      7.5979 (sec) ----------------
TotEng   =   -200637.9636 KinEng   =    172238.4258 Temp     =       300.2137 
PotEng   =   -372876.3893 E_bond   =     19915.6619 E_angle  =     88600.8349 
E_dihed  =     41769.2485 E_impro  =      1860.1446 E_vdwl   =    -17200.5282 
E_coul   =   1669422.5645 E_long   =  -2177244.3156 Press    =        44.8810 
Volume   =   2471991.0093 
---------------- Step      250 ----- CPU =      9.3487 (sec) ----------------
TotEng   =   -199652.3097 KinEng   =    172657.9612 Temp     =       300.9449 
PotEng   =   -372310.2709 E_bond   =     20334.9359 E_angle  =     88801.3619 
E_dihed  =     41953.1251 E_impro  =      1700.7596 E_vdwl   =    -17045.3664 
E_coul   =   1669315.8794 E_long   =  -2177370.9664 Press    =      -140.2114 
Volume   =   2475151.3650 
---------------- Step      300 ----- CPU =     11.1005 (sec) ----------------
TotEng   =   -200327.2866 KinEng   =    171620.4024 Temp     =       299.1364 
PotEng   =   -371947.6890 E_bond   =     20480.6244 E_angle  =     87358.3284 
E_dihed  =     41773.4207 E_impro  =      1785.0836 E_vdwl   =    -17920.8177 
E_coul   =   1671760.2300 E_long   =  -2177184.5583 Press    =      -415.6121 
Volume   =   2477560.3968 
---------------- Step      350 ----- CPU =     12.8506 (sec) ----------------
TotEng   =   -201556.7917 KinEng   =    172292.0777 Temp     =       300.3072 
PotEng   =   -373848.8694 E_bond   =     20577.7824 E_angle  =     87540.4401 
E_dihed  =     42038.8725 E_impro  =      1662.4780 E_vdwl   =    -17544.0353 
E_coul   =   1669086.5684 E_long   =  -2177210.9755 Press    =      -431.7361 
Volume   =   2478546.5077 
---------------- Step      400 ----- CPU =     14.5969 (sec) ----------------
TotEng   =   -202577.6443 KinEng   =    171649.3607 Temp     =       299.1869 
PotEng   =   -374227.0050 E_bond   =     20246.2409 E_angle  =     87244.3721 
E_dihed  =     41829.8017 E_impro  =      1746.0771 E_vdwl   =    -16485.8588 
E_coul   =   1668479.5278 E_long   =  -2177287.1658 Press    =       154.2614 
Volume   =   2478394.0841 
---------------- Step      450 ----- CPU =     16.3115 (sec) ----------------
TotEng   =   -202768.0942 KinEng   =    171671.7082 Temp     =       299.2259 
PotEng   =   -374439.8024 E_bond   =     19937.4186 E_angle  =     87140.4781 
E_dihed  =     42128.6797 E_impro  =      1787.3575 E_vdwl   =    -16379.0499 
E_coul   =   1668143.3564 E_long   =  -2177198.0427 Press    =       296.7311 
Volume   =   2478126.9741 
---------------- Step      500 ----- CPU =     18.0525 (sec) ----------------
TotEng   =   -200792.9298 KinEng   =    172069.6634 Temp     =       299.9195 
PotEng   =   -372862.5933 E_bond   =     20601.8603 E_angle  =     87282.0675 
E_dihed  =     42102.7804 E_impro  =      1760.2854 E_vdwl   =    -16195.8835 
E_coul   =   1668793.8596 E_long   =  -2177207.5630 Press    =      -104.3429 
Volume   =   2478464.0806 
---------------- Step      550 ----- CPU =     19.7960 (sec) ----------------
TotEng   =   -198889.0043 KinEng   =    173290.4895 Temp     =       302.0474 
PotEng   =   -372179.4938 E_bond   =     20346.2820 E_angle  =     87616.8214 
E_dihed  =     41581.2999 E_impro  =      1841.8589 E_vdwl   =    -15945.6254 
E_coul   =   1669596.8896 E_long   =  -2177217.0202 Press    =       403.8171 
Volume   =   2479656.3612 
---------------- Step      600 ----- CPU =     21.5377 (sec) ----------------
TotEng   =   -198676.6941 KinEng   =    173179.2597 Temp     =       301.8535 
PotEng   =   -371855.9538 E_bond   =     20434.2051 E_angle  =     88129.3433 
E_dihed  =     42020.3352 E_impro  =      1762.4611 E_vdwl   =    -17626.3067 
E_coul   =   1670656.1778 E_long   =  -2177232.1696 Press    =        -8.9592 
Volume   =   2482075.5168 
---------------- Step      650 ----- CPU =     23.2774 (sec) ----------------
TotEng   =   -200190.3337 KinEng   =    172567.9663 Temp     =       300.7880 
PotEng   =   -372758.3000 E_bond   =     20388.9529 E_angle  =     86718.1335 
E_dihed  =     41940.3756 E_impro  =      1748.7930 E_vdwl   =    -17497.7018 
E_coul   =   1671202.2080 E_long   =  -2177259.0612 Press    =      -167.8765 
Volume   =   2483816.0345 
---------------- Step      700 ----- CPU =     25.0511 (sec) ----------------
TotEng   =   -201347.5909 KinEng   =    172212.2418 Temp     =       300.1680 
PotEng   =   -373559.8326 E_bond   =     20002.1178 E_angle  =     87432.9242 
E_dihed  =     41954.9102 E_impro  =      1747.5749 E_vdwl   =    -17792.1350 
E_coul   =   1670364.8394 E_long   =  -2177270.0641 Press    =        31.8351 
Volume   =   2485084.5889 
---------------- Step      750 ----- CPU =     26.7576 (sec) ----------------
TotEng   =   -201329.8692 KinEng   =    171311.1386 Temp     =       298.5974 
PotEng   =   -372641.0077 E_bond   =     20439.5470 E_angle  =     88219.3965 
E_dihed  =     41975.6284 E_impro  =      1715.0260 E_vdwl   =    -17146.4961 
E_coul   =   1669414.1026 E_long   =  -2177258.2122 Press    =        78.0801 
Volume   =   2485326.6898 
---------------- Step      800 ----- CPU =     28.4973 (sec) ----------------
TotEng   =   -200570.0285 KinEng   =    171612.3553 Temp     =       299.1224 
PotEng   =   -372182.3838 E_bond   =     20228.9055 E_angle  =     88259.8792 
E_dihed  =     42243.9591 E_impro  =      1772.2555 E_vdwl   =    -16809.0865 
E_coul   =   1669330.4557 E_long   =  -2177208.7523 Press    =       -17.5334 
Volume   =   2485039.4961 
---------------- Step      850 ----- CPU =     30.2369 (sec) ----------------
TotEng   =   -199474.7570 KinEng   =    172497.8999 Temp     =       300.6659 
PotEng   =   -371972.6568 E_bond   =     20375.6910 E_angle  =     87817.8060 
E_dihed  =     42383.4876 E_impro  =      1756.0293 E_vdwl   =    -16826.3538 
E_coul   =   1669758.5530 E_long   =  -2177237.8700 Press    =        12.7233 
Volume   =   2484105.7541 
---------------- Step      900 ----- CPU =     32.0079 (sec) ----------------
TotEng   =   -198932.3538 KinEng   =    172769.0492 Temp     =       301.1385 
PotEng   =   -371701.4031 E_bond   =     20143.8782 E_angle  =     87863.6119 
E_dihed  =     42414.3735 E_impro  =      1878.0994 E_vdwl   =    -16873.3939 
E_coul   =   1670101.1401 E_long   =  -2177229.1122 Press    =       155.0374 
Volume   =   2482649.7924 
---------------- Step      950 ----- CPU =     33.7518 (sec) ----------------
TotEng   =   -199499.4367 KinEng   =    171899.8265 Temp     =       299.6235 
PotEng   =   -371399.2631 E_bond   =     20516.0828 E_angle  =     88206.0208 
E_dihed  =     42286.0832 E_impro  =      1909.8127 E_vdwl   =    -17050.0723 
E_coul   =   1669949.4086 E_long   =  -2177216.5989 Press    =      -279.4458 
Volume   =   2480884.7232 
---------------- Step     1000 ----- CPU =     35.4977 (sec) ----------------
TotEng   =   -200657.1443 KinEng   =    171925.0335 Temp     =       299.6674 
PotEng   =   -372582.1778 E_bond   =     20509.1551 E_angle  =     87999.3496 
E_dihed  =     41899.8495 E_impro  =      1769.8858 E_vdwl   =    -17145.3993 
E_coul   =   1669625.5748 E_long   =  -2177240.5933 Press    =        58.1403 
Volume   =   2478894.1770 
---------------- Step     1050 ----- CPU =     37.2820 (sec) ----------------
TotEng   =   -201351.9182 KinEng   =    171354.4748 Temp     =       298.6729 
PotEng   =   -372706.3930 E_bond   =     20378.6178 E_angle  =     87784.8044 
E_dihed  =     42128.3608 E_impro  =      1780.6119 E_vdwl   =    -17317.5434 
E_coul   =   1669791.9520 E_long   =  -2177253.1963 Press    =       -38.4142 
Volume   =   2477520.7865 
---------------- Step     1100 ----- CPU =     39.0356 (sec) ----------------
TotEng   =   -201021.4816 KinEng   =    171462.7737 Temp     =       298.8617 
PotEng   =   -372484.2553 E_bond   =     20531.2366 E_angle  =     88140.3215 
E_dihed  =     42135.3668 E_impro  =      1778.8374 E_vdwl   =    -17097.4836 
E_coul   =   1669340.8298 E_long   =  -2177313.3638 Press    =        72.5303 
Volume   =   2475948.2707 
---------------- Step     1150 ----- CPU =     40.7853 (sec) ----------------
TotEng   =   -200237.6933 KinEng   =    171853.4163 Temp     =       299.5426 
PotEng   =   -372091.1096 E_bond   =     20659.9070 E_angle  =     87858.0989 
E_dihed  =     42212.2841 E_impro  =      1809.0666 E_vdwl   =    -16924.3331 
E_coul   =   1669592.5178 E_long   =  -2177298.6510 Press    =       135.9375 
Volume   =   2474858.7375 
---------------- Step     1200 ----- CPU =     42.5346 (sec) ----------------
TotEng   =   -199483.0508 KinEng   =    172449.7666 Temp     =       300.5820 
PotEng   =   -371932.8174 E_bond   =     20693.7025 E_angle  =     88060.2293 
E_dihed  =     42274.2560 E_impro  =      1799.3637 E_vdwl   =    -17195.5918 
E_coul   =   1669703.6293 E_long   =  -2177268.4064 Press    =       -34.3039 
Volume   =   2474210.4178 
---------------- Step     1250 ----- CPU =     44.2867 (sec) ----------------
TotEng   =   -199532.7054 KinEng   =    172864.8793 Temp     =       301.3056 
PotEng   =   -372397.5847 E_bond   =     20378.6897 E_angle  =     88066.1268 
E_dihed  =     42181.7805 E_impro  =      1776.6972 E_vdwl   =    -16895.1183 
E_coul   =   1669371.1153 E_long   =  -2177276.8760 Press    =        50.5499 
Volume   =   2474141.9681 
---------------- Step     1300 ----- CPU =     46.0709 (sec) ----------------
TotEng   =   -200575.7860 KinEng   =    172152.5016 Temp     =       300.0639 
PotEng   =   -372728.2876 E_bond   =     20573.7737 E_angle  =     87816.2953 
E_dihed  =     42302.3030 E_impro  =      1828.5123 E_vdwl   =    -17261.6510 
E_coul   =   1669296.2827 E_long   =  -2177283.8036 Press    =       -58.0441 
Volume   =   2474112.4821 
---------------- Step     1350 ----- CPU =     47.8226 (sec) ----------------
TotEng   =   -201582.7355 KinEng   =    171644.1692 Temp     =       299.1779 
PotEng   =   -373226.9047 E_bond   =     20565.0474 E_angle  =     87761.5556 
E_dihed  =     42057.8607 E_impro  =      1823.9098 E_vdwl   =    -16707.9880 
E_coul   =   1668490.4599 E_long   =  -2177217.7501 Press    =      -118.7494 
Volume   =   2474088.0334 
---------------- Step     1400 ----- CPU =     49.5775 (sec) ----------------
TotEng   =   -201659.2597 KinEng   =    171344.0742 Temp     =       298.6548 
PotEng   =   -373003.3339 E_bond   =     20562.4459 E_angle  =     87772.2293 
E_dihed  =     42288.5426 E_impro  =      1812.1150 E_vdwl   =    -16782.2505 
E_coul   =   1668582.7666 E_long   =  -2177239.1828 Press    =       124.8083 
Volume   =   2474391.2086 
---------------- Step     1450 ----- CPU =     51.3351 (sec) ----------------
TotEng   =   -200884.2026 KinEng   =    172469.5929 Temp     =       300.6166 
PotEng   =   -373353.7955 E_bond   =     20621.1262 E_angle  =     87665.9626 
E_dihed  =     42087.6233 E_impro  =      1862.5614 E_vdwl   =    -16641.2498 
E_coul   =   1668316.0885 E_long   =  -2177265.9075 Press    =       -77.2338 
Volume   =   2474967.3767 
---------------- Step     1500 ----- CPU =     53.0907 (sec) ----------------
TotEng   =   -200016.9620 KinEng   =    172446.0109 Temp     =       300.5755 
PotEng   =   -372462.9730 E_bond   =     20444.0728 E_angle  =     88101.3662 
E_dihed  =     42193.7249 E_impro  =      1752.9903 E_vdwl   =    -17008.0823 
E_coul   =   1669300.5367 E_long   =  -2177247.5815 Press    =       -43.3706 
Volume   =   2475367.3391 
---------------- Step     1550 ----- CPU =     54.8471 (sec) ----------------
TotEng   =   -199568.8405 KinEng   =    172782.8379 Temp     =       301.1626 
PotEng   =   -372351.6784 E_bond   =     20597.5255 E_angle  =     88084.9745 
E_dihed  =     42291.5000 E_impro  =      1791.5537 E_vdwl   =    -17499.8252 
E_coul   =   1669645.8266 E_long   =  -2177263.2336 Press    =        30.7185 
Volume   =   2475282.7264 
---------------- Step     1600 ----- CPU =     56.6031 (sec) ----------------
TotEng   =   -200119.4158 KinEng   =    172350.1275 Temp     =       300.4084 
PotEng   =   -372469.5433 E_bond   =     20500.4503 E_angle  =     87752.0880 
E_dihed  =     42095.1511 E_impro  =      1785.9501 E_vdwl   =    -16855.1250 
E_coul   =   1669488.8062 E_long   =  -2177236.8639 Press    =       149.0688 
Volume   =   2475125.2068 
---------------- Step     1650 ----- CPU =     58.3929 (sec) ----------------
TotEng   =   -201287.6668 KinEng   =    171391.4194 Temp     =       298.7373 
PotEng   =   -372679.0862 E_bond   =     20432.9851 E_angle  =     87952.0054 
E_dihed  =     42257.0289 E_impro  =      1788.4924 E_vdwl   =    -17528.8407 
E_coul   =   1669677.0214 E_long   =  -2177257.7785 Press    =       -59.9671 
Volume   =   2474900.8083 
---------------- Step     1700 ----- CPU =     60.1503 (sec) ----------------
TotEng   =   -201854.4463 KinEng   =    172046.2300 Temp     =       299.8787 
PotEng   =   -373900.6762 E_bond   =     20376.9079 E_angle  =     87887.9080 
E_dihed  =     41973.9676 E_impro  =      1755.3623 E_vdwl   =    -17051.8719 
E_coul   =   1668437.9058 E_long   =  -2177280.8558 Press    =        58.7343 
Volume   =   2474530.3184 
---------------- Step     1750 ----- CPU =     61.9082 (sec) ----------------
TotEng   =   -201740.4453 KinEng   =    171883.3461 Temp     =       299.5947 
PotEng   =   -373623.7914 E_bond   =     20430.3793 E_angle  =     87775.3417 
E_dihed  =     41898.4597 E_impro  =      1769.0985 E_vdwl   =    -17352.9190 
E_coul   =   1669112.1057 E_long   =  -2177256.2574 Press    =        45.1081 
Volume   =   2474290.4219 
---------------- Step     1800 ----- CPU =     63.6671 (sec) ----------------
TotEng   =   -200919.5403 KinEng   =    172052.0537 Temp     =       299.8888 
PotEng   =   -372971.5940 E_bond   =     20411.9593 E_angle  =     88341.7849 
E_dihed  =     42046.0358 E_impro  =      1799.5100 E_vdwl   =    -17253.5293 
E_coul   =   1668950.1627 E_long   =  -2177267.5174 Press    =      -100.4281 
Volume   =   2474050.0312 
---------------- Step     1850 ----- CPU =     65.4266 (sec) ----------------
TotEng   =   -200218.8814 KinEng   =    172790.6897 Temp     =       301.1763 
PotEng   =   -373009.5711 E_bond   =     20709.6551 E_angle  =     88188.4610 
E_dihed  =     41998.6159 E_impro  =      1725.3992 E_vdwl   =    -16415.4290 
E_coul   =   1668082.9085 E_long   =  -2177299.1818 Press    =       -20.0140 
Volume   =   2473856.8855 
---------------- Step     1900 ----- CPU =     67.2222 (sec) ----------------
TotEng   =   -200573.8781 KinEng   =    172206.0143 Temp     =       300.1572 
PotEng   =   -372779.8923 E_bond   =     20641.8844 E_angle  =     88002.1252 
E_dihed  =     42125.9784 E_impro  =      1764.7169 E_vdwl   =    -16527.9745 
E_coul   =   1668513.4129 E_long   =  -2177300.0356 Press    =       -53.5364 
Volume   =   2473791.8384 
---------------- Step     1950 ----- CPU =     68.9865 (sec) ----------------
TotEng   =   -201215.4179 KinEng   =    172088.3238 Temp     =       299.9520 
PotEng   =   -373303.7416 E_bond   =     20478.2909 E_angle  =     88173.3033 
E_dihed  =     42202.4615 E_impro  =      1763.9362 E_vdwl   =    -17041.8979 
E_coul   =   1668363.0832 E_long   =  -2177242.9189 Press    =       -65.1562 
Volume   =   2474170.6527 
---------------- Step     2000 ----- CPU =     70.7456 (sec) ----------------
TotEng   =   -201440.9415 KinEng   =    171598.1660 Temp     =       299.0977 
PotEng   =   -373039.1075 E_bond   =     20734.1285 E_angle  =     88139.6706 
E_dihed  =     42193.5915 E_impro  =      1792.0677 E_vdwl   =    -16528.4940 
E_coul   =   1667869.3614 E_long   =  -2177239.4332 Press    =       -77.5679 
Volume   =   2474071.7904 
---------------- Step     2050 ----- CPU =     72.5056 (sec) ----------------
TotEng   =   -201094.6624 KinEng   =    171991.6190 Temp     =       299.7835 
PotEng   =   -373086.2814 E_bond   =     20360.0844 E_angle  =     88053.5834 
E_dihed  =     42299.8598 E_impro  =      1788.8199 E_vdwl   =    -16726.5493 
E_coul   =   1668377.6818 E_long   =  -2177239.7613 Press    =       -92.2813 
Volume   =   2473974.2686 
---------------- Step     2100 ----- CPU =     74.2639 (sec) ----------------
TotEng   =   -200685.3712 KinEng   =    172508.2030 Temp     =       300.6839 
PotEng   =   -373193.5742 E_bond   =     20549.8107 E_angle  =     88202.1259 
E_dihed  =     41977.1464 E_impro  =      1811.4731 E_vdwl   =    -17155.3324 
E_coul   =   1668706.9350 E_long   =  -2177285.7328 Press    =      -150.9620 
Volume   =   2473678.2949 
---------------- Step     2150 ----- CPU =     76.0220 (sec) ----------------
TotEng   =   -200752.4235 KinEng   =    172703.8547 Temp     =       301.0249 
PotEng   =   -373456.2782 E_bond   =     20576.1135 E_angle  =     87805.5104 
E_dihed  =     42107.6197 E_impro  =      1817.0681 E_vdwl   =    -16474.2266 
E_coul   =   1668005.0293 E_long   =  -2177293.3926 Press    =       -16.6268 
Volume   =   2473178.8217 
---------------- Step     2200 ----- CPU =     77.7821 (sec) ----------------
TotEng   =   -201383.2951 KinEng   =    171730.1446 Temp     =       299.3277 
PotEng   =   -373113.4396 E_bond   =     20690.5481 E_angle  =     88385.1961 
E_dihed  =     42062.5895 E_impro  =      1804.0343 E_vdwl   =    -16973.6067 
E_coul   =   1668157.5868 E_long   =  -2177239.7878 Press    =      -147.9720 
Volume   =   2473078.9147 
---------------- Step     2250 ----- CPU =     79.5419 (sec) ----------------
TotEng   =   -201951.0293 KinEng   =    171332.8761 Temp     =       298.6353 
PotEng   =   -373283.9055 E_bond   =     20716.8333 E_angle  =     88163.7570 
E_dihed  =     42049.9975 E_impro  =      1802.3965 E_vdwl   =    -17282.1908 
E_coul   =   1668573.6989 E_long   =  -2177308.3979 Press    =      -149.9666 
Volume   =   2473093.9561 
---------------- Step     2300 ----- CPU =     81.2994 (sec) ----------------
TotEng   =   -201814.6618 KinEng   =    172162.7570 Temp     =       300.0818 
PotEng   =   -373977.4188 E_bond   =     20743.5565 E_angle  =     87766.6095 
E_dihed  =     42116.1095 E_impro  =      1809.0194 E_vdwl   =    -16556.8370 
E_coul   =   1667436.1404 E_long   =  -2177292.0172 Press    =      -131.8630 
Volume   =   2472843.7044 
---------------- Step     2350 ----- CPU =     83.0569 (sec) ----------------
TotEng   =   -201272.7740 KinEng   =    171795.5067 Temp     =       299.4416 
PotEng   =   -373068.2807 E_bond   =     20617.2449 E_angle  =     88154.2590 
E_dihed  =     42182.1265 E_impro  =      1840.0782 E_vdwl   =    -16442.7942 
E_coul   =   1667844.0861 E_long   =  -2177263.2813 Press    =        39.0736 
Volume   =   2472271.7109 
---------------- Step     2400 ----- CPU =     84.8165 (sec) ----------------
TotEng   =   -200812.9006 KinEng   =    172560.0926 Temp     =       300.7743 
PotEng   =   -373372.9932 E_bond   =     20529.2096 E_angle  =     88399.5164 
E_dihed  =     41913.4017 E_impro  =      1750.9050 E_vdwl   =    -16944.4128 
E_coul   =   1668223.4956 E_long   =  -2177245.1086 Press    =        36.3893 
Volume   =   2471891.2839 
---------------- Step     2450 ----- CPU =     86.5757 (sec) ----------------
TotEng   =   -200864.8953 KinEng   =    172607.6237 Temp     =       300.8572 
PotEng   =   -373472.5190 E_bond   =     20686.1034 E_angle  =     87981.3698 
E_dihed  =     42199.0617 E_impro  =      1780.8266 E_vdwl   =    -16573.2308 
E_coul   =   1667706.9642 E_long   =  -2177253.6138 Press    =        73.5980 
Volume   =   2471396.0313 
---------------- Step     2500 ----- CPU =     88.3361 (sec) ----------------
TotEng   =   -201423.1869 KinEng   =    172025.1514 Temp     =       299.8419 
PotEng   =   -373448.3382 E_bond   =     20527.0683 E_angle  =     88423.5639 
E_dihed  =     42315.9895 E_impro  =      1762.2124 E_vdwl   =    -16546.4554 
E_coul   =   1667331.0670 E_long   =  -2177261.7840 Press    =        24.9489 
Volume   =   2471106.8768 
---------------- Step     2550 ----- CPU =     90.0972 (sec) ----------------
TotEng   =   -201975.6580 KinEng   =    171949.3507 Temp     =       299.7098 
PotEng   =   -373925.0087 E_bond   =     20512.8317 E_angle  =     88008.6359 
E_dihed  =     42162.4960 E_impro  =      1782.5491 E_vdwl   =    -16638.5714 
E_coul   =   1667548.7034 E_long   =  -2177301.6533 Press    =       -41.6682 
Volume   =   2470822.9393 
---------------- Step     2600 ----- CPU =     91.8576 (sec) ----------------
TotEng   =   -202351.6451 KinEng   =    171731.6740 Temp     =       299.3304 
PotEng   =   -374083.3191 E_bond   =     20593.3411 E_angle  =     87808.6817 
E_dihed  =     42136.1194 E_impro  =      1756.4477 E_vdwl   =    -17208.2568 
E_coul   =   1668083.6932 E_long   =  -2177253.3454 Press    =         9.8289 
Volume   =   2470436.6425 
---------------- Step     2650 ----- CPU =     93.6510 (sec) ----------------
TotEng   =   -202071.9406 KinEng   =    171952.6822 Temp     =       299.7156 
PotEng   =   -374024.6228 E_bond   =     20409.7674 E_angle  =     88063.3693 
E_dihed  =     41953.3686 E_impro  =      1783.3868 E_vdwl   =    -16690.8693 
E_coul   =   1667739.8584 E_long   =  -2177283.5041 Press    =        55.4814 
Volume   =   2469877.4344 
---------------- Step     2700 ----- CPU =     95.4086 (sec) ----------------
TotEng   =   -201215.9103 KinEng   =    172136.4307 Temp     =       300.0359 
PotEng   =   -373352.3410 E_bond   =     20602.0090 E_angle  =     88366.3870 
E_dihed  =     42250.4929 E_impro  =      1820.6713 E_vdwl   =    -16590.6641 
E_coul   =   1667504.7837 E_long   =  -2177306.0208 Press    =        -2.0275 
Volume   =   2469637.4948 
---------------- Step     2750 ----- CPU =     97.1666 (sec) ----------------
TotEng   =   -200482.2281 KinEng   =    172237.5658 Temp     =       300.2122 
PotEng   =   -372719.7938 E_bond   =     20562.4796 E_angle  =     88665.8620 
E_dihed  =     42117.0789 E_impro  =      1800.4154 E_vdwl   =    -16177.7269 
E_coul   =   1667581.7848 E_long   =  -2177269.6877 Press    =       108.0888 
Volume   =   2469524.8649 
---------------- Step     2800 ----- CPU =     98.9244 (sec) ----------------
TotEng   =   -200543.9920 KinEng   =    172225.2341 Temp     =       300.1907 
PotEng   =   -372769.2261 E_bond   =     20568.5112 E_angle  =     88301.1298 
E_dihed  =     42161.5275 E_impro  =      1813.0132 E_vdwl   =    -16645.3934 
E_coul   =   1668307.3491 E_long   =  -2177275.3635 Press    =        49.9502 
Volume   =   2469880.5285 
---------------- Step     2850 ----- CPU =    100.6839 (sec) ----------------
TotEng   =   -201263.2284 KinEng   =    171878.1988 Temp     =       299.5858 
PotEng   =   -373141.4271 E_bond   =     20656.1988 E_angle  =     88354.3987 
E_dihed  =     42258.4155 E_impro  =      1771.8003 E_vdwl   =    -16756.9302 
E_coul   =   1667850.7290 E_long   =  -2177276.0391 Press    =        10.6791 
Volume   =   2470794.2542 
---------------- Step     2900 ----- CPU =    102.4439 (sec) ----------------
TotEng   =   -202069.3034 KinEng   =    171929.8276 Temp     =       299.6758 
PotEng   =   -373999.1310 E_bond   =     20264.9984 E_angle  =     88035.6420 
E_dihed  =     42113.1989 E_impro  =      1782.1277 E_vdwl   =    -16538.5937 
E_coul   =   1667611.2788 E_long   =  -2177267.7831 Press    =       -15.2521 
Volume   =   2471664.0191 
---------------- Step     2950 ----- CPU =    104.2061 (sec) ----------------
TotEng   =   -202068.9451 KinEng   =    171894.9775 Temp     =       299.6150 
PotEng   =   -373963.9227 E_bond   =     20611.1884 E_angle  =     88106.7392 
E_dihed  =     42150.9293 E_impro  =      1790.2090 E_vdwl   =    -17055.1289 
E_coul   =   1667752.8509 E_long   =  -2177320.7106 Press    =      -237.8836 
Volume   =   2472463.2833 
---------------- Step     3000 ----- CPU =    105.9683 (sec) ----------------
TotEng   =   -201211.1757 KinEng   =    172030.9641 Temp     =       299.8520 
PotEng   =   -373242.1397 E_bond   =     20375.0459 E_angle  =     88148.4828 
E_dihed  =     42368.4905 E_impro  =      1759.4881 E_vdwl   =    -16161.8944 
E_coul   =   1667575.7484 E_long   =  -2177307.5012 Press    =       166.6138 
Volume   =   2472620.6598 
---------------- Step     3050 ----- CPU =    107.7621 (sec) ----------------
TotEng   =   -200310.4828 KinEng   =    172831.7932 Temp     =       301.2479 
PotEng   =   -373142.2760 E_bond   =     20580.2049 E_angle  =     88447.2426 
E_dihed  =     42188.3825 E_impro  =      1783.5301 E_vdwl   =    -16588.5648 
E_coul   =   1667757.1077 E_long   =  -2177310.1790 Press    =       -45.8078 
Volume   =   2473057.0650 
---------------- Step     3100 ----- CPU =    109.5205 (sec) ----------------
TotEng   =   -200206.9127 KinEng   =    172457.3528 Temp     =       300.5952 
PotEng   =   -372664.2656 E_bond   =     20679.4645 E_angle  =     88711.2695 
E_dihed  =     42228.6583 E_impro  =      1782.5380 E_vdwl   =    -16745.1775 
E_coul   =   1667983.3021 E_long   =  -2177304.3206 Press    =      -103.2181 
Volume   =   2473529.1096 
---------------- Step     3150 ----- CPU =    111.2774 (sec) ----------------
TotEng   =   -200875.9649 KinEng   =    172245.6163 Temp     =       300.2262 
PotEng   =   -373121.5812 E_bond   =     20642.6582 E_angle  =     88271.1752 
E_dihed  =     42260.4978 E_impro  =      1820.1600 E_vdwl   =    -16613.1617 
E_coul   =   1667780.5893 E_long   =  -2177283.4999 Press    =       -36.8257 
Volume   =   2473826.6788 
---------------- Step     3200 ----- CPU =    113.0333 (sec) ----------------
TotEng   =   -201738.9095 KinEng   =    172138.3139 Temp     =       300.0392 
PotEng   =   -373877.2234 E_bond   =     20580.1853 E_angle  =     87965.1145 
E_dihed  =     42154.1463 E_impro  =      1817.6881 E_vdwl   =    -16534.1369 
E_coul   =   1667451.9322 E_long   =  -2177312.1530 Press    =        84.5321 
Volume   =   2473576.6061 
---------------- Step     3250 ----- CPU =    114.7915 (sec) ----------------
TotEng   =   -202060.1912 KinEng   =    171684.1048 Temp     =       299.2475 
PotEng   =   -373744.2961 E_bond   =     20714.3311 E_angle  =     88251.5498 
E_dihed  =     42164.1186 E_impro  =      1825.9913 E_vdwl   =    -16638.4441 
E_coul   =   1667251.8049 E_long   =  -2177313.6476 Press    =       -26.1478 
Volume   =   2473445.8097 
---------------- Step     3300 ----- CPU =    116.5472 (sec) ----------------
TotEng   =   -201695.5283 KinEng   =    171765.0002 Temp     =       299.3885 
PotEng   =   -373460.5285 E_bond   =     20716.4074 E_angle  =     88376.1979 
E_dihed  =     42141.8317 E_impro  =      1796.5306 E_vdwl   =    -16740.6029 
E_coul   =   1667554.1502 E_long   =  -2177305.0433 Press    =      -164.2915 
Volume   =   2472909.2178 
---------------- Step     3350 ----- CPU =    118.3022 (sec) ----------------
TotEng   =   -200928.0965 KinEng   =    172100.6639 Temp     =       299.9735 
PotEng   =   -373028.7604 E_bond   =     20651.0093 E_angle  =     88447.0900 
E_dihed  =     42109.9914 E_impro  =      1769.0870 E_vdwl   =    -16423.6707 
E_coul   =   1667713.7215 E_long   =  -2177295.9888 Press    =        53.1982 
Volume   =   2471943.9247 
---------------- Step     3400 ----- CPU =    120.0574 (sec) ----------------
TotEng   =   -200438.2626 KinEng   =    172866.3042 Temp     =       301.3081 
PotEng   =   -373304.5667 E_bond   =     20766.4250 E_angle  =     88317.0153 
E_dihed  =     42120.1129 E_impro  =      1849.1411 E_vdwl   =    -16241.7805 
E_coul   =   1667178.2709 E_long   =  -2177293.7515 Press    =        11.1003 
Volume   =   2471205.3104 
---------------- Step     3450 ----- CPU =    121.8163 (sec) ----------------
TotEng   =   -201028.3131 KinEng   =    172474.8347 Temp     =       300.6257 
PotEng   =   -373503.1479 E_bond   =     20586.4262 E_angle  =     88229.8168 
E_dihed  =     42255.7495 E_impro  =      1822.0063 E_vdwl   =    -16327.5363 
E_coul   =   1667189.9935 E_long   =  -2177259.6040 Press    =        57.2211 
Volume   =   2471017.0194 
---------------- Step     3500 ----- CPU =    123.5770 (sec) ----------------
TotEng   =   -201957.0998 KinEng   =    171535.0839 Temp     =       298.9877 
PotEng   =   -373492.1837 E_bond   =     20736.5641 E_angle  =     88296.5588 
E_dihed  =     42224.2311 E_impro  =      1794.6002 E_vdwl   =    -17355.0384 
E_coul   =   1668093.6146 E_long   =  -2177282.7142 Press    =      -106.6670 
Volume   =   2471154.2884 
---------------- Step     3550 ----- CPU =    125.3377 (sec) ----------------
TotEng   =   -202489.3035 KinEng   =    171714.9496 Temp     =       299.3012 
PotEng   =   -374204.2531 E_bond   =     20696.2431 E_angle  =     87697.2056 
E_dihed  =     42040.7628 E_impro  =      1810.8818 E_vdwl   =    -17153.9108 
E_coul   =   1668017.8474 E_long   =  -2177313.2832 Press    =       -63.2022 
Volume   =   2471204.9890 
---------------- Step     3600 ----- CPU =    127.0938 (sec) ----------------
TotEng   =   -202080.5300 KinEng   =    171955.9306 Temp     =       299.7213 
PotEng   =   -374036.4606 E_bond   =     20455.6716 E_angle  =     88547.3705 
E_dihed  =     42061.3699 E_impro  =      1844.0893 E_vdwl   =    -16774.7561 
E_coul   =   1667084.2407 E_long   =  -2177254.4465 Press    =        49.5432 
Volume   =   2471206.9603 
---------------- Step     3650 ----- CPU =    128.8490 (sec) ----------------
TotEng   =   -201395.0897 KinEng   =    172141.8978 Temp     =       300.0454 
PotEng   =   -373536.9875 E_bond   =     20639.8868 E_angle  =     88553.5450 
E_dihed  =     42253.9565 E_impro  =      1794.7876 E_vdwl   =    -16381.6090 
E_coul   =   1666897.0352 E_long   =  -2177294.5897 Press    =        -6.0543 
Volume   =   2470902.7223 
---------------- Step     3700 ----- CPU =    130.6025 (sec) ----------------
TotEng   =   -201067.7100 KinEng   =    172104.0273 Temp     =       299.9794 
PotEng   =   -373171.7373 E_bond   =     20845.4740 E_angle  =     88280.4402 
E_dihed  =     42275.6509 E_impro  =      1833.1001 E_vdwl   =    -16234.3727 
E_coul   =   1667139.9601 E_long   =  -2177311.9899 Press    =       -64.9990 
Volume   =   2470462.9042 
---------------- Step     3750 ----- CPU =    132.3566 (sec) ----------------
TotEng   =   -201136.6376 KinEng   =    173143.5285 Temp     =       301.7913 
PotEng   =   -374280.1661 E_bond   =     20614.8019 E_angle  =     88217.8124 
E_dihed  =     42150.9142 E_impro  =      1822.2420 E_vdwl   =    -16625.2326 
E_coul   =   1666843.3994 E_long   =  -2177304.1035 Press    =       -91.6991 
Volume   =   2470132.5828 
---------------- Step     3800 ----- CPU =    134.1139 (sec) ----------------
TotEng   =   -201716.8759 KinEng   =    172250.1210 Temp     =       300.2340 
PotEng   =   -373966.9969 E_bond   =     20586.1755 E_angle  =     88237.6483 
E_dihed  =     42144.5936 E_impro  =      1844.7724 E_vdwl   =    -17145.1066 
E_coul   =   1667642.4714 E_long   =  -2177277.5516 Press    =        -3.4398 
Volume   =   2470128.0982 
---------------- Step     3850 ----- CPU =    135.8705 (sec) ----------------
TotEng   =   -202195.5616 KinEng   =    171940.0296 Temp     =       299.6935 
PotEng   =   -374135.5912 E_bond   =     20517.8313 E_angle  =     88403.1893 
E_dihed  =     41982.6597 E_impro  =      1812.3104 E_vdwl   =    -16844.6245 
E_coul   =   1667288.8946 E_long   =  -2177295.8519 Press    =       -36.2448 
Volume   =   2470199.5187 
---------------- Step     3900 ----- CPU =    137.6296 (sec) ----------------
TotEng   =   -202342.4513 KinEng   =    172058.4824 Temp     =       299.9000 
PotEng   =   -374400.9337 E_bond   =     20472.2762 E_angle  =     88096.1996 
E_dihed  =     42084.7480 E_impro  =      1789.6279 E_vdwl   =    -16731.2299 
E_coul   =   1667160.0776 E_long   =  -2177272.6330 Press    =       -34.9037 
Volume   =   2471297.5354 
---------------- Step     3950 ----- CPU =    139.3906 (sec) ----------------
TotEng   =   -202140.2669 KinEng   =    171840.2317 Temp     =       299.5196 
PotEng   =   -373980.4986 E_bond   =     20612.7794 E_angle  =     88359.8990 
E_dihed  =     42124.0818 E_impro  =      1781.4683 E_vdwl   =    -16983.9124 
E_coul   =   1667368.9000 E_long   =  -2177243.7147 Press    =      -215.4380 
Volume   =   2472600.9289 
---------------- Step     4000 ----- CPU =    141.1518 (sec) ----------------
TotEng   =   -201624.0091 KinEng   =    171415.1453 Temp     =       298.7787 
PotEng   =   -373039.1544 E_bond   =     20910.1575 E_angle  =     88574.4795 
E_dihed  =     42254.8133 E_impro  =      1786.9963 E_vdwl   =    -16818.3833 
E_coul   =   1667535.9296 E_long   =  -2177283.1472 Press    =       -26.8710 
Volume   =   2473424.6503 
---------------- Step     4050 ----- CPU =    142.9115 (sec) ----------------
TotEng   =   -200919.8116 KinEng   =    172369.6104 Temp     =       300.4423 
PotEng   =   -373289.4221 E_bond   =     20712.9238 E_angle  =     88469.9906 
E_dihed  =     42160.2403 E_impro  =      1770.6246 E_vdwl   =    -17201.2940 
E_coul   =   1668083.1784 E_long   =  -2177285.0857 Press    =        19.6253 
Volume   =   2473930.3179 
---------------- Step     4100 ----- CPU =    144.6729 (sec) ----------------
TotEng   =   -200706.0533 KinEng   =    172427.8312 Temp     =       300.5438 
PotEng   =   -373133.8846 E_bond   =     20831.8043 E_angle  =     88323.7807 
E_dihed  =     42145.8891 E_impro  =      1812.0660 E_vdwl   =    -16529.5527 
E_coul   =   1667557.5637 E_long   =  -2177275.4357 Press    =      -158.3492 
Volume   =   2473982.7659 
---------------- Step     4150 ----- CPU =    146.4275 (sec) ----------------
TotEng   =   -201099.9313 KinEng   =    172902.9178 Temp     =       301.3719 
PotEng   =   -374002.8490 E_bond   =     20675.8607 E_angle  =     88210.4728 
E_dihed  =     41998.9405 E_impro  =      1817.8247 E_vdwl   =    -16501.1546 
E_coul   =   1667118.5854 E_long   =  -2177323.3786 Press    =        63.5035 
Volume   =   2474234.4781 
---------------- Step     4200 ----- CPU =    148.1778 (sec) ----------------
TotEng   =   -202027.3193 KinEng   =    171344.4866 Temp     =       298.6555 
PotEng   =   -373371.8059 E_bond   =     20802.9069 E_angle  =     88385.5784 
E_dihed  =     41940.5589 E_impro  =      1822.4849 E_vdwl   =    -16517.5038 
E_coul   =   1667508.9202 E_long   =  -2177314.7514 Press    =      -124.4119 
Volume   =   2474894.0822 
---------------- Step     4250 ----- CPU =    149.9288 (sec) ----------------
TotEng   =   -202603.2656 KinEng   =    171707.5746 Temp     =       299.2884 
PotEng   =   -374310.8402 E_bond   =     20769.0237 E_angle  =     88274.2791 
E_dihed  =     42113.7449 E_impro  =      1820.5643 E_vdwl   =    -17014.1477 
E_coul   =   1667037.8542 E_long   =  -2177312.1588 Press    =      -159.2602 
Volume   =   2475435.0701 
---------------- Step     4300 ----- CPU =    151.6792 (sec) ----------------
TotEng   =   -202359.4811 KinEng   =    171733.5388 Temp     =       299.3336 
PotEng   =   -374093.0199 E_bond   =     20698.5762 E_angle  =     88273.1829 
E_dihed  =     42298.4923 E_impro  =      1825.6272 E_vdwl   =    -17155.4312 
E_coul   =   1667270.4086 E_long   =  -2177303.8759 Press    =      -150.2698 
Volume   =   2475062.5078 
---------------- Step     4350 ----- CPU =    153.4354 (sec) ----------------
TotEng   =   -201486.6356 KinEng   =    172673.0344 Temp     =       300.9712 
PotEng   =   -374159.6700 E_bond   =     20717.1083 E_angle  =     88053.5537 
E_dihed  =     42198.4692 E_impro  =      1808.0828 E_vdwl   =    -16794.6873 
E_coul   =   1667169.7648 E_long   =  -2177311.9615 Press    =      -101.7861 
Volume   =   2473942.9656 
---------------- Step     4400 ----- CPU =    155.1898 (sec) ----------------
TotEng   =   -200877.6627 KinEng   =    172689.0854 Temp     =       300.9992 
PotEng   =   -373566.7481 E_bond   =     20586.4152 E_angle  =     88344.9231 
E_dihed  =     42264.0952 E_impro  =      1846.3572 E_vdwl   =    -16820.9230 
E_coul   =   1667485.8332 E_long   =  -2177273.4489 Press    =        96.6542 
Volume   =   2472985.1096 
---------------- Step     4450 ----- CPU =    156.9434 (sec) ----------------
TotEng   =   -201229.9909 KinEng   =    172371.6844 Temp     =       300.4459 
PotEng   =   -373601.6753 E_bond   =     20816.6304 E_angle  =     88191.8001 
E_dihed  =     42222.8921 E_impro  =      1801.7469 E_vdwl   =    -16408.6535 
E_coul   =   1667080.5963 E_long   =  -2177306.6875 Press    =       -88.7868 
Volume   =   2472291.1654 
---------------- Step     4500 ----- CPU =    158.6964 (sec) ----------------
TotEng   =   -201946.6996 KinEng   =    171646.1132 Temp     =       299.1812 
PotEng   =   -373592.8128 E_bond   =     20763.7828 E_angle  =     88475.8168 
E_dihed  =     42241.6223 E_impro  =      1788.1748 E_vdwl   =    -16479.0239 
E_coul   =   1666920.1006 E_long   =  -2177303.2862 Press    =        48.7709 
Volume   =   2471844.9391 
---------------- Step     4550 ----- CPU =    160.4480 (sec) ----------------
TotEng   =   -202255.5216 KinEng   =    171583.5852 Temp     =       299.0723 
PotEng   =   -373839.1068 E_bond   =     20667.9476 E_angle  =     88222.8710 
E_dihed  =     42080.3159 E_impro  =      1816.0235 E_vdwl   =    -16841.4996 
E_coul   =   1667521.9505 E_long   =  -2177306.7157 Press    =       -42.9099 
Volume   =   2471387.4420 
---------------- Step     4600 ----- CPU =    162.1969 (sec) ----------------
TotEng   =   -201998.6855 KinEng   =    171934.7543 Temp     =       299.6844 
PotEng   =   -373933.4398 E_bond   =     20592.3588 E_angle  =     88739.6222 
E_dihed  =     42008.0943 E_impro  =      1866.8392 E_vdwl   =    -17049.1172 
E_coul   =   1667261.8058 E_long   =  -2177353.0429 Press    =       -94.8590 
Volume   =   2470886.3397 
---------------- Step     4650 ----- CPU =    163.9144 (sec) ----------------
TotEng   =   -201740.8696 KinEng   =    171886.1244 Temp     =       299.5996 
PotEng   =   -373626.9940 E_bond   =     20431.1567 E_angle  =     88489.8220 
E_dihed  =     42277.1331 E_impro  =      1829.0104 E_vdwl   =    -16439.7386 
E_coul   =   1667137.4603 E_long   =  -2177351.8379 Press    =       105.0343 
Volume   =   2470070.1195 
---------------- Step     4700 ----- CPU =    165.6655 (sec) ----------------
TotEng   =   -201516.1435 KinEng   =    172141.0447 Temp     =       300.0439 
PotEng   =   -373657.1883 E_bond   =     20642.1357 E_angle  =     88643.8885 
E_dihed  =     42174.1332 E_impro  =      1789.4797 E_vdwl   =    -16841.9445 
E_coul   =   1667277.4439 E_long   =  -2177342.3248 Press    =        23.9918 
Volume   =   2469704.0236 
---------------- Step     4750 ----- CPU =    167.4174 (sec) ----------------
TotEng   =   -201497.9331 KinEng   =    172046.1046 Temp     =       299.8784 
PotEng   =   -373544.0377 E_bond   =     20591.5114 E_angle  =     88559.8119 
E_dihed  =     42153.8667 E_impro  =      1831.3443 E_vdwl   =    -16453.0466 
E_coul   =   1667117.6770 E_long   =  -2177345.2023 Press    =       106.1077 
Volume   =   2469408.5059 
---------------- Step     4800 ----- CPU =    169.1700 (sec) ----------------
TotEng   =   -201703.9910 KinEng   =    172358.6429 Temp     =       300.4232 
PotEng   =   -374062.6340 E_bond   =     20714.5032 E_angle  =     88154.7961 
E_dihed  =     42054.2700 E_impro  =      1811.0080 E_vdwl   =    -16741.7989 
E_coul   =   1667300.1263 E_long   =  -2177355.5387 Press    =       -61.7699 
Volume   =   2469296.3287 
---------------- Step     4850 ----- CPU =    170.9211 (sec) ----------------
TotEng   =   -201968.0864 KinEng   =    172041.0392 Temp     =       299.8696 
PotEng   =   -374009.1256 E_bond   =     20661.4622 E_angle  =     88719.8932 
E_dihed  =     42174.0765 E_impro  =      1795.8235 E_vdwl   =    -17121.8596 
E_coul   =   1667075.0004 E_long   =  -2177313.5218 Press    =      -135.3905 
Volume   =   2469379.0877 
---------------- Step     4900 ----- CPU =    172.6729 (sec) ----------------
TotEng   =   -202016.0787 KinEng   =    171831.5588 Temp     =       299.5045 
PotEng   =   -373847.6375 E_bond   =     20723.8424 E_angle  =     88433.2874 
E_dihed  =     42194.2583 E_impro  =      1793.1269 E_vdwl   =    -17094.6126 
E_coul   =   1667441.9919 E_long   =  -2177339.5318 Press    =      -152.9260 
Volume   =   2469297.2856 
---------------- Step     4950 ----- CPU =    174.4279 (sec) ----------------
TotEng   =   -201930.1592 KinEng   =    172044.1964 Temp     =       299.8751 
PotEng   =   -373974.3556 E_bond   =     20896.3277 E_angle  =     88214.2516 
E_dihed  =     42188.1682 E_impro  =      1824.6402 E_vdwl   =    -16558.0619 
E_coul   =   1666787.0291 E_long   =  -2177326.7106 Press    =       -38.8986 
Volume   =   2469135.5177 
---------------- Step     5000 ----- CPU =    176.2137 (sec) ----------------
TotEng   =   -201761.7061 KinEng   =    172293.4910 Temp     =       300.3096 
PotEng   =   -374055.1971 E_bond   =     20730.4292 E_angle  =     88736.3757 
E_dihed  =     42123.7361 E_impro  =      1800.2987 E_vdwl   =    -16205.4447 
E_coul   =   1666077.5061 E_long   =  -2177318.0982 Press    =       -10.5305 
Volume   =   2469187.8574 
---------------- Step     5050 ----- CPU =    177.9679 (sec) ----------------
TotEng   =   -201837.0368 KinEng   =    172161.2773 Temp     =       300.0792 
PotEng   =   -373998.3141 E_bond   =     20755.7658 E_angle  =     88400.5011 
E_dihed  =     42185.3307 E_impro  =      1763.7124 E_vdwl   =    -16625.4798 
E_coul   =   1666847.8517 E_long   =  -2177325.9961 Press    =      -119.1507 
Volume   =   2469204.4527 
---------------- Step     5100 ----- CPU =    179.7214 (sec) ----------------
TotEng   =   -201960.2015 KinEng   =    172218.4738 Temp     =       300.1789 
PotEng   =   -374178.6753 E_bond   =     20746.5107 E_angle  =     88547.2332 
E_dihed  =     42158.0326 E_impro  =      1825.0518 E_vdwl   =    -16426.2073 
E_coul   =   1666274.0747 E_long   =  -2177303.3710 Press    =       -93.3290 
Volume   =   2469351.2859 
---------------- Step     5150 ----- CPU =    181.4784 (sec) ----------------
TotEng   =   -202108.3749 KinEng   =    172438.0831 Temp     =       300.5617 
PotEng   =   -374546.4581 E_bond   =     20703.3194 E_angle  =     88602.7910 
E_dihed  =     42044.4052 E_impro  =      1787.4341 E_vdwl   =    -16851.2126 
E_coul   =   1666485.6127 E_long   =  -2177318.8078 Press    =       -83.0383 
Volume   =   2469860.3944 
---------------- Step     5200 ----- CPU =    183.2347 (sec) ----------------
TotEng   =   -202275.1445 KinEng   =    172140.0727 Temp     =       300.0422 
PotEng   =   -374415.2172 E_bond   =     20787.2600 E_angle  =     88483.0050 
E_dihed  =     42075.9714 E_impro  =      1767.6268 E_vdwl   =    -16645.8925 
E_coul   =   1666464.4094 E_long   =  -2177347.5974 Press    =        72.1926 
Volume   =   2470061.8631 
---------------- Step     5250 ----- CPU =    185.0235 (sec) ----------------
TotEng   =   -202245.5108 KinEng   =    172089.0923 Temp     =       299.9534 
PotEng   =   -374334.6032 E_bond   =     20715.3882 E_angle  =     88615.4962 
E_dihed  =     42113.5914 E_impro  =      1769.0820 E_vdwl   =    -16378.2356 
E_coul   =   1666146.7955 E_long   =  -2177316.7208 Press    =      -117.9816 
Volume   =   2470085.0164 
---------------- Step     5300 ----- CPU =    186.7829 (sec) ----------------
TotEng   =   -201925.9830 KinEng   =    171773.5047 Temp     =       299.4033 
PotEng   =   -373699.4877 E_bond   =     20666.1362 E_angle  =     88883.3079 
E_dihed  =     42220.1991 E_impro  =      1830.4602 E_vdwl   =    -16306.8252 
E_coul   =   1666280.8411 E_long   =  -2177273.6070 Press    =       -85.2635 
Volume   =   2469633.4925 
---------------- Step     5350 ----- CPU =    188.5431 (sec) ----------------
TotEng   =   -201600.4262 KinEng   =    172375.1403 Temp     =       300.4520 
PotEng   =   -373975.5664 E_bond   =     20678.9895 E_angle  =     88706.7368 
E_dihed  =     42352.0496 E_impro  =      1786.6301 E_vdwl   =    -16710.5263 
E_coul   =   1666497.0247 E_long   =  -2177286.4708 Press    =       -23.7609 
Volume   =   2469233.1382 
---------------- Step     5400 ----- CPU =    190.3070 (sec) ----------------
TotEng   =   -201779.8396 KinEng   =    172681.5806 Temp     =       300.9861 
PotEng   =   -374461.4202 E_bond   =     20714.1941 E_angle  =     88472.1686 
E_dihed  =     42233.1199 E_impro  =      1794.1156 E_vdwl   =    -16883.7556 
E_coul   =   1666533.8156 E_long   =  -2177325.0786 Press    =       -17.3429 
Volume   =   2469042.5526 
---------------- Step     5450 ----- CPU =    192.0679 (sec) ----------------
TotEng   =   -202431.7841 KinEng   =    171853.9661 Temp     =       299.5435 
PotEng   =   -374285.7501 E_bond   =     20733.2181 E_angle  =     88422.3677 
E_dihed  =     42303.7273 E_impro  =      1854.3433 E_vdwl   =    -16219.4797 
E_coul   =   1665931.9671 E_long   =  -2177311.8940 Press    =       -69.5739 
Volume   =   2468779.9044 
---------------- Step     5500 ----- CPU =    193.8253 (sec) ----------------
TotEng   =   -202694.0856 KinEng   =    171677.4316 Temp     =       299.2358 
PotEng   =   -374371.5173 E_bond   =     20607.6705 E_angle  =     88576.9924 
E_dihed  =     42278.7274 E_impro  =      1777.1696 E_vdwl   =    -16849.4071 
E_coul   =   1666540.3371 E_long   =  -2177303.0071 Press    =       -76.5648 
Volume   =   2468580.7512 
---------------- Step     5550 ----- CPU =    195.5819 (sec) ----------------
TotEng   =   -202580.7197 KinEng   =    172004.0574 Temp     =       299.8051 
PotEng   =   -374584.7771 E_bond   =     20637.6892 E_angle  =     88480.6516 
E_dihed  =     42275.7800 E_impro  =      1811.7669 E_vdwl   =    -16527.9549 
E_coul   =   1666055.3439 E_long   =  -2177318.0539 Press    =       -31.7847 
Volume   =   2468410.4266 
---------------- Step     5600 ----- CPU =    197.3373 (sec) ----------------
TotEng   =   -202077.9242 KinEng   =    171996.6795 Temp     =       299.7923 
PotEng   =   -374074.6037 E_bond   =     20715.2384 E_angle  =     88600.4423 
E_dihed  =     42191.3248 E_impro  =      1751.1127 E_vdwl   =    -16390.7790 
E_coul   =   1666389.4246 E_long   =  -2177331.3675 Press    =        72.2132 
Volume   =   2468396.6642 
---------------- Step     5650 ----- CPU =    199.0931 (sec) ----------------
TotEng   =   -201766.1587 KinEng   =    172805.5194 Temp     =       301.2021 
PotEng   =   -374571.6781 E_bond   =     20760.2525 E_angle  =     88305.3944 
E_dihed  =     42249.8810 E_impro  =      1815.2784 E_vdwl   =    -15830.5454 
E_coul   =   1665431.1414 E_long   =  -2177303.0804 Press    =       -49.8948 
Volume   =   2468921.0970 
---------------- Step     5700 ----- CPU =    200.8840 (sec) ----------------
TotEng   =   -202054.0317 KinEng   =    172076.2893 Temp     =       299.9310 
PotEng   =   -374130.3210 E_bond   =     20735.0664 E_angle  =     88679.7818 
E_dihed  =     42050.5075 E_impro  =      1808.7677 E_vdwl   =    -16903.1967 
E_coul   =   1666806.0343 E_long   =  -2177307.2821 Press    =        39.6399 
Volume   =   2469948.4340 
---------------- Step     5750 ----- CPU =    202.6438 (sec) ----------------
TotEng   =   -202263.8320 KinEng   =    172058.1461 Temp     =       299.8994 
PotEng   =   -374321.9780 E_bond   =     20536.8468 E_angle  =     88518.2174 
E_dihed  =     42033.7006 E_impro  =      1850.8218 E_vdwl   =    -17215.5705 
E_coul   =   1667277.6086 E_long   =  -2177323.6027 Press    =       -58.9415 
Volume   =   2471114.2427 
---------------- Step     5800 ----- CPU =    204.4057 (sec) ----------------
TotEng   =   -202247.3732 KinEng   =    172699.9667 Temp     =       301.0181 
PotEng   =   -374947.3398 E_bond   =     20604.2625 E_angle  =     88432.3738 
E_dihed  =     42200.1219 E_impro  =      1784.7765 E_vdwl   =    -16956.1943 
E_coul   =   1666291.2721 E_long   =  -2177303.9523 Press    =      -208.9700 
Volume   =   2471621.1504 
---------------- Step     5850 ----- CPU =    206.1656 (sec) ----------------
TotEng   =   -202136.6143 KinEng   =    172293.3476 Temp     =       300.3094 
PotEng   =   -374429.9620 E_bond   =     20743.0365 E_angle  =     88499.6362 
E_dihed  =     42104.0378 E_impro  =      1806.9772 E_vdwl   =    -16835.4384 
E_coul   =   1666553.5388 E_long   =  -2177301.7500 Press    =      -183.7472 
Volume   =   2471534.1514 
---------------- Step     5900 ----- CPU =    207.9258 (sec) ----------------
TotEng   =   -202008.2302 KinEng   =    172278.3815 Temp     =       300.2833 
PotEng   =   -374286.6116 E_bond   =     20771.2583 E_angle  =     88692.1594 
E_dihed  =     42214.4763 E_impro  =      1789.2323 E_vdwl   =    -16772.9653 
E_coul   =   1666325.6667 E_long   =  -2177306.4393 Press    =      -152.8585 
Volume   =   2471142.3123 
---------------- Step     5950 ----- CPU =    209.6864 (sec) ----------------
TotEng   =   -201924.4049 KinEng   =    172161.6279 Temp     =       300.0798 
PotEng   =   -374086.0327 E_bond   =     20644.7066 E_angle  =     88556.3834 
E_dihed  =     42047.4476 E_impro  =      1734.8899 E_vdwl   =    -16553.5745 
E_coul   =   1666792.1139 E_long   =  -2177307.9997 Press    =        20.0065 
Volume   =   2470569.8795 
---------------- Step     6000 ----- CPU =    211.4515 (sec) ----------------
TotEng   =   -201909.3688 KinEng   =    172208.1594 Temp     =       300.1609 
PotEng   =   -374117.5282 E_bond   =     20618.5752 E_angle  =     88673.5477 
E_dihed  =     42035.4365 E_impro  =      1815.7154 E_vdwl   =    -16802.5494 
E_coul   =   1666838.7876 E_long   =  -2177297.0413 Press    =        42.3844 
Volume   =   2470349.3326 
---------------- Step     6050 ----- CPU =    213.2172 (sec) ----------------
TotEng   =   -201826.5474 KinEng   =    172209.1916 Temp     =       300.1627 
PotEng   =   -374035.7390 E_bond   =     20687.0795 E_angle  =     88599.2103 
E_dihed  =     42203.5110 E_impro  =      1838.2438 E_vdwl   =    -16547.9501 
E_coul   =   1666479.2845 E_long   =  -2177295.1179 Press    =       111.5552 
Volume   =   2470334.0807 
---------------- Step     6100 ----- CPU =    214.9798 (sec) ----------------
TotEng   =   -202074.2845 KinEng   =    171784.8709 Temp     =       299.4231 
PotEng   =   -373859.1554 E_bond   =     20686.6066 E_angle  =     88677.1818 
E_dihed  =     42163.8389 E_impro  =      1847.1910 E_vdwl   =    -16238.3310 
E_coul   =   1666333.7684 E_long   =  -2177329.4110 Press    =        90.7723 
Volume   =   2470291.5980 
---------------- Step     6150 ----- CPU =    216.7394 (sec) ----------------
TotEng   =   -202383.0388 KinEng   =    171959.8575 Temp     =       299.7281 
PotEng   =   -374342.8962 E_bond   =     20649.2725 E_angle  =     88431.8729 
E_dihed  =     42072.3633 E_impro  =      1815.9627 E_vdwl   =    -16404.2676 
E_coul   =   1666434.8936 E_long   =  -2177342.9937 Press    =       -72.1910 
Volume   =   2470477.8563 
---------------- Step     6200 ----- CPU =    218.4962 (sec) ----------------
TotEng   =   -202220.2018 KinEng   =    171846.0492 Temp     =       299.5297 
PotEng   =   -374066.2510 E_bond   =     20585.7002 E_angle  =     88675.5748 
E_dihed  =     42031.9694 E_impro  =      1832.8096 E_vdwl   =    -16370.3173 
E_coul   =   1666500.0652 E_long   =  -2177322.0529 Press    =        42.9309 
Volume   =   2470453.9606 
---------------- Step     6250 ----- CPU =    220.2532 (sec) ----------------
TotEng   =   -201819.8132 KinEng   =    172078.3636 Temp     =       299.9347 
PotEng   =   -373898.1768 E_bond   =     20792.1999 E_angle  =     88750.1591 
E_dihed  =     42118.9242 E_impro  =      1829.6819 E_vdwl   =    -16157.2435 
E_coul   =   1666084.6860 E_long   =  -2177316.5845 Press    =       -37.9296 
Volume   =   2470861.2228 
---------------- Step     6300 ----- CPU =    222.0096 (sec) ----------------
TotEng   =   -201807.1355 KinEng   =    172123.2217 Temp     =       300.0129 
PotEng   =   -373930.3572 E_bond   =     20706.7881 E_angle  =     88550.9772 
E_dihed  =     42237.2549 E_impro  =      1783.2698 E_vdwl   =    -15792.9523 
E_coul   =   1665886.4002 E_long   =  -2177302.0950 Press    =        32.9191 
Volume   =   2471103.7123 
---------------- Step     6350 ----- CPU =    223.7657 (sec) ----------------
TotEng   =   -201826.5801 KinEng   =    172013.9546 Temp     =       299.8224 
PotEng   =   -373840.5347 E_bond   =     20718.3832 E_angle  =     88708.3114 
E_dihed  =     42179.7173 E_impro  =      1820.3442 E_vdwl   =    -16353.1500 
E_coul   =   1666389.1694 E_long   =  -2177303.3103 Press    =       -18.1244 
Volume   =   2471199.9866 
---------------- Step     6400 ----- CPU =    225.5234 (sec) ----------------
TotEng   =   -201803.2080 KinEng   =    172596.2915 Temp     =       300.8374 
PotEng   =   -374399.4995 E_bond   =     20776.0896 E_angle  =     88635.6677 
E_dihed  =     41965.4212 E_impro  =      1782.4292 E_vdwl   =    -16378.4806 
E_coul   =   1666123.8033 E_long   =  -2177304.4299 Press    =        25.6453 
Volume   =   2471085.1632 
---------------- Step     6450 ----- CPU =    227.2824 (sec) ----------------
TotEng   =   -202081.2790 KinEng   =    172051.2256 Temp     =       299.8874 
PotEng   =   -374132.5046 E_bond   =     20828.8292 E_angle  =     88641.7854 
E_dihed  =     41971.5504 E_impro  =      1829.8689 E_vdwl   =    -16962.4159 
E_coul   =   1666895.3961 E_long   =  -2177337.5187 Press    =      -170.8899 
Volume   =   2471364.9886 
---------------- Step     6500 ----- CPU =    229.0374 (sec) ----------------
TotEng   =   -202102.7715 KinEng   =    172195.0289 Temp     =       300.1380 
PotEng   =   -374297.8003 E_bond   =     20787.8486 E_angle  =     88728.9691 
E_dihed  =     42053.1337 E_impro  =      1781.3914 E_vdwl   =    -16707.0343 
E_coul   =   1666334.0424 E_long   =  -2177276.1512 Press    =      -121.9510 
Volume   =   2471133.8839 
---------------- Step     6550 ----- CPU =    230.7927 (sec) ----------------
TotEng   =   -201878.6291 KinEng   =    172501.9551 Temp     =       300.6730 
PotEng   =   -374380.5842 E_bond   =     20771.9104 E_angle  =     88920.7500 
E_dihed  =     42028.3929 E_impro  =      1763.0373 E_vdwl   =    -17284.6965 
E_coul   =   1666697.3533 E_long   =  -2177277.3316 Press    =      -140.5019 
Volume   =   2470475.1785 
---------------- Step     6600 ----- CPU =    232.5475 (sec) ----------------
TotEng   =   -201620.3096 KinEng   =    172557.2921 Temp     =       300.7694 
PotEng   =   -374177.6017 E_bond   =     20675.9168 E_angle  =     89006.6131 
E_dihed  =     41928.6775 E_impro  =      1748.2574 E_vdwl   =    -16483.6855 
E_coul   =   1666247.2151 E_long   =  -2177300.5960 Press    =       -18.2473 
Volume   =   2469260.2151 
---------------- Step     6650 ----- CPU =    234.2987 (sec) ----------------
TotEng   =   -201761.1541 KinEng   =    172633.6460 Temp     =       300.9025 
PotEng   =   -374394.8001 E_bond   =     20671.9343 E_angle  =     88637.7786 
E_dihed  =     42020.9973 E_impro  =      1786.1159 E_vdwl   =    -16103.2698 
E_coul   =   1665894.3544 E_long   =  -2177302.7109 Press    =        59.9580 
Volume   =   2467933.6279 
---------------- Step     6700 ----- CPU =    236.0510 (sec) ----------------
TotEng   =   -202209.9241 KinEng   =    171900.6822 Temp     =       299.6250 
PotEng   =   -374110.6063 E_bond   =     20753.8320 E_angle  =     88612.4873 
E_dihed  =     42108.3414 E_impro  =      1782.5804 E_vdwl   =    -16850.8529 
E_coul   =   1666781.8178 E_long   =  -2177298.8124 Press    =         1.9096 
Volume   =   2466689.6237 
---------------- Step     6750 ----- CPU =    237.8043 (sec) ----------------
TotEng   =   -202482.2098 KinEng   =    171702.7566 Temp     =       299.2800 
PotEng   =   -374184.9665 E_bond   =     20723.5204 E_angle  =     88474.9694 
E_dihed  =     42068.1754 E_impro  =      1827.3028 E_vdwl   =    -16611.3798 
E_coul   =   1666648.3581 E_long   =  -2177315.9128 Press    =       -30.8672 
Volume   =   2465659.1679 
---------------- Step     6800 ----- CPU =    239.5574 (sec) ----------------
TotEng   =   -202265.0744 KinEng   =    171928.4150 Temp     =       299.6733 
PotEng   =   -374193.4894 E_bond   =     20811.8708 E_angle  =     88600.2767 
E_dihed  =     42180.3022 E_impro  =      1793.7983 E_vdwl   =    -16770.9455 
E_coul   =   1666507.0894 E_long   =  -2177315.8812 Press    =       -82.7531 
Volume   =   2464777.9110 
---------------- Step     6850 ----- CPU =    241.3075 (sec) ----------------
TotEng   =   -201881.6070 KinEng   =    172375.1472 Temp     =       300.4520 
PotEng   =   -374256.7543 E_bond   =     20676.2132 E_angle  =     89151.9684 
E_dihed  =     42049.6251 E_impro  =      1776.0817 E_vdwl   =    -16742.2994 
E_coul   =   1666147.2434 E_long   =  -2177315.5867 Press    =        10.1431 
Volume   =   2464324.4333 
---------------- Step     6900 ----- CPU =    243.0577 (sec) ----------------
TotEng   =   -201992.0362 KinEng   =    172258.5787 Temp     =       300.2488 
PotEng   =   -374250.6149 E_bond   =     20740.5661 E_angle  =     88868.2846 
E_dihed  =     42085.5176 E_impro  =      1777.9671 E_vdwl   =    -16675.3813 
E_coul   =   1666250.1651 E_long   =  -2177297.7341 Press    =        82.4816 
Volume   =   2464261.8454 
---------------- Step     6950 ----- CPU =    244.8081 (sec) ----------------
TotEng   =   -202433.2238 KinEng   =    172156.7471 Temp     =       300.0713 
PotEng   =   -374589.9710 E_bond   =     20868.7513 E_angle  =     88621.6232 
E_dihed  =     42072.6652 E_impro  =      1791.3482 E_vdwl   =    -16826.6762 
E_coul   =   1666152.0982 E_long   =  -2177269.7807 Press    =       -44.3517 
Volume   =   2464430.2189 
---------------- Step     7000 ----- CPU =    246.5573 (sec) ----------------
TotEng   =   -202802.0482 KinEng   =    171737.3813 Temp     =       299.3403 
PotEng   =   -374539.4294 E_bond   =     20818.6651 E_angle  =     88793.6912 
E_dihed  =     42196.2531 E_impro  =      1801.7021 E_vdwl   =    -16263.4458 
E_coul   =   1665411.4756 E_long   =  -2177297.7706 Press    =        12.7804 
Volume   =   2464584.5648 
---------------- Step     7050 ----- CPU =    248.3075 (sec) ----------------
TotEng   =   -202879.5979 KinEng   =    172250.9485 Temp     =       300.2355 
PotEng   =   -375130.5464 E_bond   =     20811.4860 E_angle  =     88444.0259 
E_dihed  =     41957.3893 E_impro  =      1837.5973 E_vdwl   =    -16535.9867 
E_coul   =   1665661.7413 E_long   =  -2177306.7995 Press    =       -20.2849 
Volume   =   2465147.9925 
---------------- Step     7100 ----- CPU =    250.0579 (sec) ----------------
TotEng   =   -202694.8356 KinEng   =    171920.9991 Temp     =       299.6604 
PotEng   =   -374615.8347 E_bond   =     20578.6120 E_angle  =     88810.3218 
E_dihed  =     42053.4313 E_impro  =      1795.4582 E_vdwl   =    -16279.4246 
E_coul   =   1665697.0187 E_long   =  -2177271.2522 Press    =        83.1228 
Volume   =   2465581.0287 
---------------- Step     7150 ----- CPU =    251.8407 (sec) ----------------
TotEng   =   -202220.1181 KinEng   =    171744.1139 Temp     =       299.3521 
PotEng   =   -373964.2321 E_bond   =     20759.5310 E_angle  =     88934.6013 
E_dihed  =     42196.3343 E_impro  =      1801.1446 E_vdwl   =    -16343.8117 
E_coul   =   1665920.0324 E_long   =  -2177232.0639 Press    =       -44.1546 
Volume   =   2465898.8152 
---------------- Step     7200 ----- CPU =    253.5594 (sec) ----------------
TotEng   =   -201682.3856 KinEng   =    172439.9885 Temp     =       300.5650 
PotEng   =   -374122.3741 E_bond   =     20592.0105 E_angle  =     88885.1172 
E_dihed  =     42204.7868 E_impro  =      1827.4423 E_vdwl   =    -16628.4612 
E_coul   =   1666284.4121 E_long   =  -2177287.6819 Press    =        76.2217 
Volume   =   2466174.5241 
---------------- Step     7250 ----- CPU =    255.3132 (sec) ----------------
TotEng   =   -201528.2644 KinEng   =    172423.3853 Temp     =       300.5360 
PotEng   =   -373951.6497 E_bond   =     20994.0179 E_angle  =     88866.2179 
E_dihed  =     42313.7850 E_impro  =      1806.2984 E_vdwl   =    -16895.5354 
E_coul   =   1666245.4323 E_long   =  -2177281.8659 Press    =      -142.5965 
Volume   =   2466676.0723 
---------------- Step     7300 ----- CPU =    257.0723 (sec) ----------------
TotEng   =   -202210.0805 KinEng   =    172275.7271 Temp     =       300.2787 
PotEng   =   -374485.8076 E_bond   =     20804.0541 E_angle  =     88720.6665 
E_dihed  =     42172.7821 E_impro  =      1813.0664 E_vdwl   =    -16531.4918 
E_coul   =   1665789.0557 E_long   =  -2177253.9405 Press    =      -124.6783 
Volume   =   2466984.6455 
---------------- Step     7350 ----- CPU =    258.8287 (sec) ----------------
TotEng   =   -203119.2710 KinEng   =    171731.1929 Temp     =       299.3295 
PotEng   =   -374850.4639 E_bond   =     20725.3763 E_angle  =     88520.4444 
E_dihed  =     42026.4285 E_impro  =      1820.6406 E_vdwl   =    -16821.4086 
E_coul   =   1666170.6283 E_long   =  -2177292.5734 Press    =        -5.4720 
Volume   =   2467083.1810 
---------------- Step     7400 ----- CPU =    260.5839 (sec) ----------------
TotEng   =   -203406.0921 KinEng   =    171778.5173 Temp     =       299.4120 
PotEng   =   -375184.6094 E_bond   =     20559.9380 E_angle  =     88733.0122 
E_dihed  =     42064.7623 E_impro  =      1840.0130 E_vdwl   =    -16522.8932 
E_coul   =   1665396.6617 E_long   =  -2177256.1034 Press    =       -62.9406 
Volume   =   2467290.6762 
---------------- Step     7450 ----- CPU =    262.3374 (sec) ----------------
TotEng   =   -202787.4490 KinEng   =    171507.4230 Temp     =       298.9395 
PotEng   =   -374294.8720 E_bond   =     20797.9172 E_angle  =     88975.7015 
E_dihed  =     42080.2066 E_impro  =      1817.9884 E_vdwl   =    -16599.1883 
E_coul   =   1665941.0994 E_long   =  -2177308.5968 Press    =       -31.1895 
Volume   =   2467490.6478 
---------------- Step     7500 ----- CPU =    264.0946 (sec) ----------------
TotEng   =   -201802.2570 KinEng   =    172325.3047 Temp     =       300.3651 
PotEng   =   -374127.5617 E_bond   =     20709.6824 E_angle  =     88975.6050 
E_dihed  =     42137.2562 E_impro  =      1774.1613 E_vdwl   =    -16934.3288 
E_coul   =   1666506.8985 E_long   =  -2177296.8363 Press    =        49.2968 
Volume   =   2467442.2830 
---------------- Step     7550 ----- CPU =    265.8524 (sec) ----------------
TotEng   =   -201187.9014 KinEng   =    172557.6698 Temp     =       300.7701 
PotEng   =   -373745.5712 E_bond   =     20778.7172 E_angle  =     88797.7007 
E_dihed  =     42127.6141 E_impro  =      1785.9430 E_vdwl   =    -16785.5609 
E_coul   =   1666838.4563 E_long   =  -2177288.4417 Press    =       -24.1430 
Volume   =   2467377.4100 
---------------- Step     7600 ----- CPU =    267.6109 (sec) ----------------
TotEng   =   -201330.4545 KinEng   =    172249.4839 Temp     =       300.2329 
PotEng   =   -373579.9384 E_bond   =     20726.2539 E_angle  =     89441.1900 
E_dihed  =     42033.5140 E_impro  =      1802.5375 E_vdwl   =    -16408.1023 
E_coul   =   1666098.3147 E_long   =  -2177273.6462 Press    =       -58.1384 
Volume   =   2467096.6010 
---------------- Step     7650 ----- CPU =    269.3665 (sec) ----------------
TotEng   =   -202238.8353 KinEng   =    171946.6025 Temp     =       299.7050 
PotEng   =   -374185.4378 E_bond   =     20605.4104 E_angle  =     88751.8559 
E_dihed  =     41949.2134 E_impro  =      1784.6171 E_vdwl   =    -16340.6452 
E_coul   =   1666372.0300 E_long   =  -2177307.9193 Press    =        25.3136 
Volume   =   2466983.7253 
---------------- Step     7700 ----- CPU =    271.1552 (sec) ----------------
TotEng   =   -203068.5752 KinEng   =    171894.2088 Temp     =       299.6137 
PotEng   =   -374962.7841 E_bond   =     20639.1669 E_angle  =     88547.5906 
E_dihed  =     41926.7268 E_impro  =      1732.4323 E_vdwl   =    -16200.4662 
E_coul   =   1665728.7524 E_long   =  -2177336.9869 Press    =       -52.2340 
Volume   =   2467097.3264 
---------------- Step     7750 ----- CPU =    272.9123 (sec) ----------------
TotEng   =   -203159.3384 KinEng   =    171638.4778 Temp     =       299.1679 
PotEng   =   -374797.8162 E_bond   =     20676.2527 E_angle  =     88735.7476 
E_dihed  =     41763.7878 E_impro  =      1780.3410 E_vdwl   =    -16584.8547 
E_coul   =   1666143.6439 E_long   =  -2177312.7344 Press    =        65.9824 
Volume   =   2467258.7677 
---------------- Step     7800 ----- CPU =    274.6683 (sec) ----------------
TotEng   =   -202489.8675 KinEng   =    172751.2753 Temp     =       301.1076 
PotEng   =   -375241.1428 E_bond   =     20567.8666 E_angle  =     88722.5854 
E_dihed  =     41890.8805 E_impro  =      1749.1258 E_vdwl   =    -16508.3818 
E_coul   =   1665638.6180 E_long   =  -2177301.8374 Press    =       -63.5774 
Volume   =   2467385.5271 
---------------- Step     7850 ----- CPU =    276.4233 (sec) ----------------
TotEng   =   -201937.0889 KinEng   =    172327.6892 Temp     =       300.3692 
PotEng   =   -374264.7781 E_bond   =     20867.4509 E_angle  =     88906.5908 
E_dihed  =     42082.7377 E_impro  =      1753.8363 E_vdwl   =    -16676.2507 
E_coul   =   1666100.7298 E_long   =  -2177299.8730 Press    =       -98.1386 
Volume   =   2467538.4164 
---------------- Step     7900 ----- CPU =    278.1803 (sec) ----------------
TotEng   =   -201481.5524 KinEng   =    172696.1071 Temp     =       301.0114 
PotEng   =   -374177.6595 E_bond   =     20758.8528 E_angle  =     88843.6883 
E_dihed  =     42197.4144 E_impro  =      1792.2079 E_vdwl   =    -17411.6393 
E_coul   =   1666943.9808 E_long   =  -2177302.1644 Press    =       -36.1016 
Volume   =   2467606.0900 
---------------- Step     7950 ----- CPU =    279.9378 (sec) ----------------
TotEng   =   -201359.3847 KinEng   =    172480.1592 Temp     =       300.6350 
PotEng   =   -373839.5439 E_bond   =     20699.4070 E_angle  =     89227.3965 
E_dihed  =     42024.7968 E_impro  =      1780.2393 E_vdwl   =    -16822.8652 
E_coul   =   1666555.9945 E_long   =  -2177304.5128 Press    =       127.8376 
Volume   =   2467418.4061 
---------------- Step     8000 ----- CPU =    281.6978 (sec) ----------------
TotEng   =   -202173.3024 KinEng   =    172438.9738 Temp     =       300.5632 
PotEng   =   -374612.2762 E_bond   =     20681.0380 E_angle  =     88827.7939 
E_dihed  =     41991.0184 E_impro  =      1802.8761 E_vdwl   =    -16735.2699 
E_coul   =   1666099.1643 E_long   =  -2177278.8970 Press    =      -155.8693 
Volume   =   2467546.0204 
---------------- Step     8050 ----- CPU =    283.4619 (sec) ----------------
TotEng   =   -202871.7356 KinEng   =    171400.4815 Temp     =       298.7531 
PotEng   =   -374272.2171 E_bond   =     20726.1652 E_angle  =     89052.6608 
E_dihed  =     41943.1996 E_impro  =      1740.9797 E_vdwl   =    -16753.0932 
E_coul   =   1666336.7326 E_long   =  -2177318.8618 Press    =       -11.2372 
Volume   =   2467604.6386 
---------------- Step     8100 ----- CPU =    285.2290 (sec) ----------------
TotEng   =   -202864.0570 KinEng   =    171765.5089 Temp     =       299.3894 
PotEng   =   -374629.5659 E_bond   =     20723.4468 E_angle  =     88755.5211 
E_dihed  =     42065.4938 E_impro  =      1843.3966 E_vdwl   =    -16046.8081 
E_coul   =   1665303.1335 E_long   =  -2177273.7496 Press    =      -104.7166 
Volume   =   2467661.2997 
---------------- Step     8150 ----- CPU =    286.9945 (sec) ----------------
TotEng   =   -202365.3203 KinEng   =    172247.5269 Temp     =       300.2295 
PotEng   =   -374612.8472 E_bond   =     20600.8816 E_angle  =     88718.9226 
E_dihed  =     42273.2432 E_impro  =      1816.7236 E_vdwl   =    -16637.2056 
E_coul   =   1665900.3467 E_long   =  -2177285.7594 Press    =       -28.1006 
Volume   =   2467908.9638 
---------------- Step     8200 ----- CPU =    288.7598 (sec) ----------------
TotEng   =   -201839.7690 KinEng   =    172145.4432 Temp     =       300.0516 
PotEng   =   -373985.2122 E_bond   =     20698.4467 E_angle  =     88907.2001 
E_dihed  =     42186.0108 E_impro  =      1779.3542 E_vdwl   =    -16613.3900 
E_coul   =   1666321.5381 E_long   =  -2177264.3723 Press    =       -43.7806 
Volume   =   2468126.4262 
---------------- Step     8250 ----- CPU =    290.5227 (sec) ----------------
TotEng   =   -201351.1489 KinEng   =    172285.6271 Temp     =       300.2959 
PotEng   =   -373636.7760 E_bond   =     20849.4518 E_angle  =     89279.6093 
E_dihed  =     42088.7281 E_impro  =      1794.3295 E_vdwl   =    -16252.5625 
E_coul   =   1665923.3695 E_long   =  -2177319.7018 Press    =      -159.4251 
Volume   =   2468205.4874 
---------------- Step     8300 ----- CPU =    292.2841 (sec) ----------------
TotEng   =   -201813.8791 KinEng   =    172373.2809 Temp     =       300.4487 
PotEng   =   -374187.1600 E_bond   =     20724.3692 E_angle  =     88835.8182 
E_dihed  =     42072.5080 E_impro  =      1813.8013 E_vdwl   =    -16394.2831 
E_coul   =   1666053.7012 E_long   =  -2177293.0747 Press    =      -100.4262 
Volume   =   2468194.8509 
---------------- Step     8350 ----- CPU =    294.0457 (sec) ----------------
TotEng   =   -202744.6223 KinEng   =    171692.8331 Temp     =       299.2627 
PotEng   =   -374437.4554 E_bond   =     20829.2951 E_angle  =     88632.4028 
E_dihed  =     42008.1538 E_impro  =      1855.8929 E_vdwl   =    -16599.5950 
E_coul   =   1666122.3109 E_long   =  -2177285.9160 Press    =        54.4441 
Volume   =   2468161.6525 
---------------- Step     8400 ----- CPU =    295.8101 (sec) ----------------
TotEng   =   -203163.0901 KinEng   =    171740.6982 Temp     =       299.3461 
PotEng   =   -374903.7883 E_bond   =     20635.1603 E_angle  =     88951.0033 
E_dihed  =     41962.1462 E_impro  =      1793.9522 E_vdwl   =    -16312.9708 
E_coul   =   1665369.3729 E_long   =  -2177302.4525 Press    =       210.7065 
Volume   =   2468621.5960 
---------------- Step     8450 ----- CPU =    297.5714 (sec) ----------------
TotEng   =   -202977.3056 KinEng   =    171623.6014 Temp     =       299.1420 
PotEng   =   -374600.9070 E_bond   =     20855.7140 E_angle  =     88789.3850 
E_dihed  =     41980.0968 E_impro  =      1793.4263 E_vdwl   =    -16452.0696 
E_coul   =   1665678.4106 E_long   =  -2177245.8702 Press    =       -17.5659 
Volume   =   2468938.7176 
---------------- Step     8500 ----- CPU =    299.3332 (sec) ----------------
TotEng   =   -202457.4181 KinEng   =    172412.3823 Temp     =       300.5169 
PotEng   =   -374869.8003 E_bond   =     20679.1315 E_angle  =     88733.7431 
E_dihed  =     41894.3713 E_impro  =      1794.8948 E_vdwl   =    -16668.0747 
E_coul   =   1665992.2936 E_long   =  -2177296.1599 Press    =      -143.9697 
Volume   =   2468461.0605 
---------------- Step     8550 ----- CPU =    301.0972 (sec) ----------------
TotEng   =   -201933.2276 KinEng   =    172076.4419 Temp     =       299.9313 
PotEng   =   -374009.6696 E_bond   =     20722.1982 E_angle  =     89166.4341 
E_dihed  =     42154.6745 E_impro  =      1800.1798 E_vdwl   =    -16235.3335 
E_coul   =   1665686.3060 E_long   =  -2177304.1287 Press    =        35.7578 
Volume   =   2467740.1210 
---------------- Step     8600 ----- CPU =    302.8564 (sec) ----------------
TotEng   =   -201948.3686 KinEng   =    172324.6580 Temp     =       300.3640 
PotEng   =   -374273.0267 E_bond   =     20756.7812 E_angle  =     88976.0404 
E_dihed  =     42053.5185 E_impro  =      1782.9365 E_vdwl   =    -16713.3930 
E_coul   =   1666155.4441 E_long   =  -2177284.3544 Press    =       -50.3238 
Volume   =   2467317.5341 
---------------- Step     8650 ----- CPU =    304.6191 (sec) ----------------
TotEng   =   -202431.4496 KinEng   =    172103.4345 Temp     =       299.9784 
PotEng   =   -374534.8840 E_bond   =     20990.0409 E_angle  =     88761.5695 
E_dihed  =     41963.8424 E_impro  =      1840.3920 E_vdwl   =    -16796.9154 
E_coul   =   1666002.3142 E_long   =  -2177296.1277 Press    =        24.4039 
Volume   =   2466812.8934 
---------------- Step     8700 ----- CPU =    306.3811 (sec) ----------------
TotEng   =   -202825.5435 KinEng   =    171742.3382 Temp     =       299.3490 
PotEng   =   -374567.8817 E_bond   =     20614.8169 E_angle  =     89197.1682 
E_dihed  =     42020.8072 E_impro  =      1790.8015 E_vdwl   =    -16632.3832 
E_coul   =   1665725.3957 E_long   =  -2177284.4879 Press    =        -7.0993 
Volume   =   2466573.7608 
---------------- Step     8750 ----- CPU =    308.1425 (sec) ----------------
TotEng   =   -202972.5582 KinEng   =    172147.9862 Temp     =       300.0560 
PotEng   =   -375120.5444 E_bond   =     20830.7998 E_angle  =     88701.0820 
E_dihed  =     42070.4423 E_impro  =      1764.2716 E_vdwl   =    -16570.0833 
E_coul   =   1665395.3593 E_long   =  -2177312.4160 Press    =       -80.0329 
Volume   =   2466535.3585 
---------------- Step     8800 ----- CPU =    309.8727 (sec) ----------------
TotEng   =   -202748.8969 KinEng   =    171803.7123 Temp     =       299.4559 
PotEng   =   -374552.6092 E_bond   =     20725.5660 E_angle  =     88934.7309 
E_dihed  =     42038.6853 E_impro  =      1868.0167 E_vdwl   =    -16859.7757 
E_coul   =   1666042.3057 E_long   =  -2177302.1382 Press    =       -55.0393 
Volume   =   2466862.0967 
---------------- Step     8850 ----- CPU =    311.6362 (sec) ----------------
TotEng   =   -202038.8759 KinEng   =    172455.2817 Temp     =       300.5916 
PotEng   =   -374494.1576 E_bond   =     20662.9803 E_angle  =     89103.8332 
E_dihed  =     42061.9567 E_impro  =      1792.4059 E_vdwl   =    -16066.4349 
E_coul   =   1665260.9481 E_long   =  -2177309.8469 Press    =        55.5368 
Volume   =   2467383.3280 
---------------- Step     8900 ----- CPU =    313.4007 (sec) ----------------
TotEng   =   -201648.4024 KinEng   =    172623.6794 Temp     =       300.8852 
PotEng   =   -374272.0818 E_bond   =     20827.7082 E_angle  =     88965.4327 
E_dihed  =     42148.8451 E_impro  =      1845.2352 E_vdwl   =    -16416.1451 
E_coul   =   1665639.2607 E_long   =  -2177282.4187 Press    =         0.5825 
Volume   =   2468183.6278 
---------------- Step     8950 ----- CPU =    315.1677 (sec) ----------------
TotEng   =   -201815.1842 KinEng   =    172283.3794 Temp     =       300.2920 
PotEng   =   -374098.5636 E_bond   =     20894.7009 E_angle  =     89100.6213 
E_dihed  =     42104.2471 E_impro  =      1836.0706 E_vdwl   =    -16544.3037 
E_coul   =   1665792.4412 E_long   =  -2177282.3410 Press    =      -140.1190 
Volume   =   2468910.1931 
---------------- Step     9000 ----- CPU =    316.9352 (sec) ----------------
TotEng   =   -202214.3106 KinEng   =    172775.4129 Temp     =       301.1496 
PotEng   =   -374989.7235 E_bond   =     20874.6144 E_angle  =     88553.1933 
E_dihed  =     42116.9855 E_impro  =      1815.2678 E_vdwl   =    -16389.7249 
E_coul   =   1665377.9987 E_long   =  -2177338.0583 Press    =      -111.0478 
Volume   =   2469027.5637 
---------------- Step     9050 ----- CPU =    318.7018 (sec) ----------------
TotEng   =   -202876.1116 KinEng   =    171945.9216 Temp     =       299.7038 
PotEng   =   -374822.0331 E_bond   =     20625.6284 E_angle  =     88806.3328 
E_dihed  =     42072.3795 E_impro  =      1787.6731 E_vdwl   =    -16098.0062 
E_coul   =   1665254.7130 E_long   =  -2177270.7536 Press    =      -100.2239 
Volume   =   2469175.9783 
---------------- Step     9100 ----- CPU =    320.4687 (sec) ----------------
TotEng   =   -203290.6554 KinEng   =    171281.4436 Temp     =       298.5456 
PotEng   =   -374572.0990 E_bond   =     20788.7763 E_angle  =     88742.7577 
E_dihed  =     42045.4004 E_impro  =      1806.4629 E_vdwl   =    -16527.9742 
E_coul   =   1665872.2466 E_long   =  -2177299.7687 Press    =        23.4808 
Volume   =   2468898.7722 
---------------- Step     9150 ----- CPU =    322.2343 (sec) ----------------
TotEng   =   -202936.4795 KinEng   =    172183.4977 Temp     =       300.1179 
PotEng   =   -375119.9772 E_bond   =     20840.6021 E_angle  =     88589.1677 
E_dihed  =     42024.8060 E_impro  =      1775.6806 E_vdwl   =    -16293.2745 
E_coul   =   1665229.0016 E_long   =  -2177285.9608 Press    =      -113.0900 
Volume   =   2468562.7171 
---------------- Step     9200 ----- CPU =    323.9946 (sec) ----------------
TotEng   =   -202430.4553 KinEng   =    171775.4986 Temp     =       299.4068 
PotEng   =   -374205.9540 E_bond   =     20636.9723 E_angle  =     89178.2919 
E_dihed  =     42041.4372 E_impro  =      1773.5284 E_vdwl   =    -15683.4651 
E_coul   =   1665132.9290 E_long   =  -2177285.6477 Press    =        -7.6602 
Volume   =   2468173.4189 
---------------- Step     9250 ----- CPU =    325.7860 (sec) ----------------
TotEng   =   -202153.2517 KinEng   =    172358.3750 Temp     =       300.4227 
PotEng   =   -374511.6267 E_bond   =     20770.6211 E_angle  =     89028.4456 
E_dihed  =     41926.4827 E_impro  =      1818.2853 E_vdwl   =    -16076.6609 
E_coul   =   1665292.4654 E_long   =  -2177271.2657 Press    =        53.9206 
Volume   =   2468175.2606 
---------------- Step     9300 ----- CPU =    327.5432 (sec) ----------------
TotEng   =   -202559.9862 KinEng   =    172427.0171 Temp     =       300.5424 
PotEng   =   -374987.0032 E_bond   =     20704.3998 E_angle  =     88756.0180 
E_dihed  =     42041.6072 E_impro  =      1821.8238 E_vdwl   =    -16233.5152 
E_coul   =   1665248.9391 E_long   =  -2177326.2758 Press    =        -5.7251 
Volume   =   2467908.9546 
---------------- Step     9350 ----- CPU =    329.2980 (sec) ----------------
TotEng   =   -203036.6843 KinEng   =    171884.9596 Temp     =       299.5976 
PotEng   =   -374921.6438 E_bond   =     20968.3388 E_angle  =     88676.0517 
E_dihed  =     41885.7551 E_impro  =      1781.1477 E_vdwl   =    -16290.4060 
E_coul   =   1665342.9780 E_long   =  -2177285.5092 Press    =       -91.6378 
Volume   =   2467370.0516 
---------------- Step     9400 ----- CPU =    331.0504 (sec) ----------------
TotEng   =   -203222.5573 KinEng   =    171990.5106 Temp     =       299.7815 
PotEng   =   -375213.0680 E_bond   =     20652.8543 E_angle  =     89018.5589 
E_dihed  =     41898.9021 E_impro  =      1801.9652 E_vdwl   =    -16718.0775 
E_coul   =   1665444.8564 E_long   =  -2177312.1273 Press    =        -4.4950 
Volume   =   2466667.2272 
---------------- Step     9450 ----- CPU =    332.8048 (sec) ----------------
TotEng   =   -202904.3908 KinEng   =    171736.3714 Temp     =       299.3386 
PotEng   =   -374640.7623 E_bond   =     20679.7128 E_angle  =     88925.3353 
E_dihed  =     42163.0051 E_impro  =      1787.4684 E_vdwl   =    -15907.7725 
E_coul   =   1665014.1837 E_long   =  -2177302.6950 Press    =        78.9443 
Volume   =   2466165.3616 
---------------- Step     9500 ----- CPU =    334.5573 (sec) ----------------
TotEng   =   -202385.1652 KinEng   =    172260.5667 Temp     =       300.2522 
PotEng   =   -374645.7319 E_bond   =     20639.2889 E_angle  =     89057.1405 
E_dihed  =     42125.9561 E_impro  =      1807.2523 E_vdwl   =    -16042.7452 
E_coul   =   1665065.7397 E_long   =  -2177298.3642 Press    =       118.3579 
Volume   =   2465723.8982 
---------------- Step     9550 ----- CPU =    336.3147 (sec) ----------------
TotEng   =   -202217.0853 KinEng   =    172439.3687 Temp     =       300.5639 
PotEng   =   -374656.4539 E_bond   =     20783.3031 E_angle  =     88809.1908 
E_dihed  =     42236.6740 E_impro  =      1797.3255 E_vdwl   =    -15747.8319 
E_coul   =   1664769.0908 E_long   =  -2177304.2062 Press    =        77.5679 
Volume   =   2465577.4337 
---------------- Step     9600 ----- CPU =    338.0713 (sec) ----------------
TotEng   =   -202683.7318 KinEng   =    172485.0414 Temp     =       300.6435 
PotEng   =   -375168.7732 E_bond   =     20855.9725 E_angle  =     88592.3378 
E_dihed  =     42108.3826 E_impro  =      1815.3645 E_vdwl   =    -16517.1223 
E_coul   =   1665311.3861 E_long   =  -2177335.0944 Press    =       -46.3691 
Volume   =   2466002.5131 
---------------- Step     9650 ----- CPU =    339.8270 (sec) ----------------
TotEng   =   -203088.5335 KinEng   =    171884.0916 Temp     =       299.5960 
PotEng   =   -374972.6251 E_bond   =     20512.4150 E_angle  =     88735.3387 
E_dihed  =     42055.5062 E_impro  =      1787.8623 E_vdwl   =    -16385.4418 
E_coul   =   1665657.0342 E_long   =  -2177335.3396 Press    =       185.6353 
Volume   =   2466758.7830 
---------------- Step     9700 ----- CPU =    341.5845 (sec) ----------------
TotEng   =   -203121.9747 KinEng   =    171977.3101 Temp     =       299.7585 
PotEng   =   -375099.2848 E_bond   =     20657.5261 E_angle  =     88804.1700 
E_dihed  =     42091.6031 E_impro  =      1762.3893 E_vdwl   =    -16491.6570 
E_coul   =   1665372.7517 E_long   =  -2177296.0680 Press    =      -129.3062 
Volume   =   2467610.8467 
---------------- Step     9750 ----- CPU =    343.3420 (sec) ----------------
TotEng   =   -202519.6881 KinEng   =    172278.1219 Temp     =       300.2828 
PotEng   =   -374797.8100 E_bond   =     20590.1314 E_angle  =     88980.4516 
E_dihed  =     42128.8539 E_impro  =      1760.8400 E_vdwl   =    -16277.5567 
E_coul   =   1665336.3802 E_long   =  -2177316.9103 Press    =         1.8467 
Volume   =   2468365.3502 
---------------- Step     9800 ----- CPU =    345.0977 (sec) ----------------
TotEng   =   -201972.5911 KinEng   =    172272.8037 Temp     =       300.2736 
PotEng   =   -374245.3948 E_bond   =     20729.6737 E_angle  =     89427.0879 
E_dihed  =     41940.5564 E_impro  =      1800.9517 E_vdwl   =    -16493.9180 
E_coul   =   1665657.4979 E_long   =  -2177307.2443 Press    =       -11.1478 
Volume   =   2468829.5762 
---------------- Step     9850 ----- CPU =    346.8551 (sec) ----------------
TotEng   =   -202164.1970 KinEng   =    172150.2410 Temp     =       300.0599 
PotEng   =   -374314.4379 E_bond   =     20829.7502 E_angle  =     88896.4281 
E_dihed  =     42083.9915 E_impro  =      1747.2029 E_vdwl   =    -16408.2395 
E_coul   =   1665808.9912 E_long   =  -2177272.5622 Press    =         0.7844 
Volume   =   2469475.6450 
---------------- Step     9900 ----- CPU =    348.6150 (sec) ----------------
TotEng   =   -202585.4714 KinEng   =    172030.9690 Temp     =       299.8521 
PotEng   =   -374616.4404 E_bond   =     20845.3297 E_angle  =     88866.0567 
E_dihed  =     42149.0416 E_impro  =      1739.9519 E_vdwl   =    -16347.6366 
E_coul   =   1665467.1165 E_long   =  -2177336.3002 Press    =      -192.2783 
Volume   =   2469881.6758 
---------------- Step     9950 ----- CPU =    350.3745 (sec) ----------------
TotEng   =   -203050.3150 KinEng   =    171518.5781 Temp     =       298.9590 
PotEng   =   -374568.8931 E_bond   =     20873.7903 E_angle  =     88827.4454 
E_dihed  =     42162.8395 E_impro  =      1793.3763 E_vdwl   =    -16776.8647 
E_coul   =   1665895.1550 E_long   =  -2177344.6349 Press    =      -211.6036 
Volume   =   2469659.3494 
---------------- Step    10000 ----- CPU =    352.1353 (sec) ----------------
TotEng   =   -202969.7330 KinEng   =    172016.5437 Temp     =       299.8269 
PotEng   =   -374986.2766 E_bond   =     20883.1656 E_angle  =     88930.1523 
E_dihed  =     42004.1831 E_impro  =      1814.6760 E_vdwl   =    -16604.2554 
E_coul   =   1665299.5393 E_long   =  -2177313.7374 Press    =       -60.7332 
Volume   =   2468835.4194 
Loop time of 352.135 on 16 procs for 10000 steps with 256000 atoms

Performance: 4.907 ns/day, 4.891 hours/ns, 28.398 timesteps/s
99.4% CPU use with 16 MPI tasks x 1 OpenMP threads

MPI task timing breakdown:
Section |  min time  |  avg time  |  max time  |%varavg| %total
---------------------------------------------------------------
Pair    | 219.41     | 221.45     | 224.13     |  10.1 | 62.89
Bond    | 12.793     | 13.347     | 13.864     |  12.3 |  3.79
Kspace  | 35.898     | 39.034     | 41.463     |  30.4 | 11.08
Neigh   | 30.369     | 30.44      | 30.482     |   0.6 |  8.64
Comm    | 13.916     | 14.238     | 15.003     |  10.4 |  4.04
Output  | 0.012388   | 0.012686   | 0.016536   |   0.9 |  0.00
Modify  | 30.205     | 31.86      | 32.436     |  15.3 |  9.05
Other   |            | 1.754      |            |       |  0.50

Nlocal:          16000 ave       16077 max       15899 min
Histogram: 1 1 2 2 0 4 0 1 2 3
Nghost:        33411.8 ave       33524 max       33311 min
Histogram: 3 1 1 3 1 1 1 2 0 3
Neighs:    6.00476e+06 ave 6.09655e+06 max 5.91158e+06 min
Histogram: 1 1 2 2 2 1 4 2 0 1

Total # of neighbors = 96076171
Ave neighs/atom = 375.29754
Ave special neighs/atom = 7.431875
Neighbor list builds = 1207
Dangerous builds = 0
Total wall time: 0:05:52
Intel(R) VTune(TM) Profiler 2022.2.0 collection completed successfully. Use the "aps --report /home/ubuntu/lammps/bench/aps_result_20220703" command to generate textual and HTML reports for the profiling session.
