LAMMPS (7 Jan 2022)
  using 1 OpenMP thread(s) per MPI task
Reading data file ...
  orthogonal box = (-27.5 -38.5 -36.3646) to (27.5 38.5 36.3615)
  2 by 4 by 2 MPI processor grid
  reading atoms ...
  32000 atoms
  reading velocities ...
  32000 velocities
  scanning bonds ...
  4 = max bonds/atom
  scanning angles ...
  8 = max angles/atom
  scanning dihedrals ...
  18 = max dihedrals/atom
  scanning impropers ...
  2 = max impropers/atom
  reading bonds ...
  27723 bonds
  reading angles ...
  40467 angles
  reading dihedrals ...
  56829 dihedrals
  reading impropers ...
  1034 impropers
Finding 1-2 1-3 1-4 neighbors ...
  special bond factors lj:    0        0        0       
  special bond factors coul:  0        0        0       
     4 = max # of 1-2 neighbors
    12 = max # of 1-3 neighbors
    24 = max # of 1-4 neighbors
    26 = max # of special neighbors
  special bonds CPU = 0.003 seconds
  read_data CPU = 0.228 seconds
Replicating atoms ...
  orthogonal box = (-27.5 -38.5 -36.3646) to (192.5 269.5 254.5398)
  2 by 4 by 2 MPI processor grid
  2048000 atoms
  1774272 bonds
  2589888 angles
  3637056 dihedrals
  66176 impropers
Finding 1-2 1-3 1-4 neighbors ...
  special bond factors lj:    0        0        0       
  special bond factors coul:  0        0        0       
     4 = max # of 1-2 neighbors
    12 = max # of 1-3 neighbors
    24 = max # of 1-4 neighbors
    26 = max # of special neighbors
  special bonds CPU = 0.110 seconds
  replicate CPU = 0.198 seconds
Finding SHAKE clusters ...
  103488 = # of size 2 clusters
  232512 = # of size 3 clusters
   47808 = # of size 4 clusters
  270912 = # of frozen angles
  find clusters CPU = 0.049 seconds
PPPM initialization ...
  using 12-bit tables for long-range coulomb (../kspace.cpp:340)
  G vector (1/distance) = 0.28975108
  grid = 128 180 160
  stencil order = 7
  estimated absolute RMS force accuracy = 0.0039244534
  estimated relative force accuracy = 1.1818375e-05
  using single precision MKL FFT
  3d grid and FFT values/proc = 350838 230400
----------------------------------------------------------
Using INTEL Package without Coprocessor.
Compiler: Intel Classic C++ 20.21.5 / Intel(R) C++ g++ 9.3 mode
SIMD compiler directives: Enabled
Precision: mixed
----------------------------------------------------------
  generated 2278 of 2278 mixed pair_coeff terms from arithmetic mixing rule
Neighbor list info ...
  update every 1 steps, delay 5 steps, check yes
  max neighbors/atom: 2000, page size: 100000
  master list distance cutoff = 12
  ghost atom cutoff = 12
  binsize = 6, bins = 37 52 49
  1 neighbor lists, perpetual/occasional/extra = 1 0 0
  (1) pair lj/charmm/coul/long/intel, perpetual
      attributes: half, newton on, intel
      pair build: half/bin/newton/intel
      stencil: half/bin/3d
      bin: intel
Setting up Verlet run ...
  Unit style    : real
  Current step  : 0
  Time step     : 2
Per MPI rank memory allocation (min/avg/max) = 1395 | 1395 | 1395 Mbytes
---------------- Step        0 ----- CPU =      0.0000 (sec) ----------------
TotEng   =  -1622981.6042 KinEng   =   1372469.2022 Temp     =       299.0274 
PotEng   =  -2995450.8063 E_bond   =    162431.7410 E_angle  =    698967.9457 
E_dihed  =    333554.2808 E_impro  =     13664.8915 E_vdwl   =   -147703.2770 
E_coul   =  16082009.6982 E_long   = -20138376.0866 Press    =      -152.4314 
Volume   =  19711682.1440 
---------------- Step       50 ----- CPU =     15.6700 (sec) ----------------
TotEng   =  -1621306.3140 KinEng   =   1376080.8595 Temp     =       299.8143 
PotEng   =  -2997387.1735 E_bond   =    158188.5141 E_angle  =    693553.2887 
E_dihed  =    335327.5133 E_impro  =     14536.7399 E_vdwl   =   -127532.3444 
E_coul   =  16067597.9165 E_long   = -20139058.8015 Press    =       235.1541 
Volume   =  19713998.0167 
---------------- Step      100 ----- CPU =     31.0823 (sec) ----------------
TotEng   =  -1618418.0653 KinEng   =   1381780.9253 Temp     =       301.0562 
PotEng   =  -3000198.9906 E_bond   =    164348.4616 E_angle  =    690028.2515 
E_dihed  =    332711.6770 E_impro  =     13873.4613 E_vdwl   =   -121634.6419 
E_coul   =  16059104.8939 E_long   = -20138631.0940 Press    =        12.3838 
Volume   =  19720507.7416 
Loop time of 31.0824 on 16 procs for 100 steps with 2048000 atoms

Performance: 0.556 ns/day, 43.170 hours/ns, 3.217 timesteps/s
99.1% CPU use with 16 MPI tasks x 1 OpenMP threads

MPI task timing breakdown:
Section |  min time  |  avg time  |  max time  |%varavg| %total
---------------------------------------------------------------
Pair    | 17.649     | 17.859     | 18.217     |   3.1 | 57.46
Bond    | 1.1169     | 1.1357     | 1.1616     |   1.0 |  3.65
Kspace  | 4.7059     | 5.04       | 5.2476     |   5.7 | 16.22
Neigh   | 2.1438     | 2.1461     | 2.1478     |   0.1 |  6.90
Comm    | 1.0531     | 1.0671     | 1.0928     |   0.9 |  3.43
Output  | 0.00052082 | 0.00054221 | 0.00059663 |   0.0 |  0.00
Modify  | 3.6481     | 3.682      | 3.7001     |   0.7 | 11.85
Other   |            | 0.1515     |            |       |  0.49

Nlocal:         128000 ave      128000 max      128000 min
Histogram: 16 0 0 0 0 0 0 0 0 0
Nghost:         109912 ave      109912 max      109912 min
Histogram: 16 0 0 0 0 0 0 0 0 0
Neighs:    4.81121e+07 ave 4.81928e+07 max 4.80284e+07 min
Histogram: 4 0 0 4 0 0 4 0 0 4

Total # of neighbors = 7.6979424e+08
Ave neighs/atom = 375.87609
Ave special neighs/atom = 7.431875
Neighbor list builds = 11
Dangerous builds = 0
Total wall time: 0:00:32
Intel(R) VTune(TM) Profiler 2022.2.0 collection completed successfully. Use the "aps --report /home/ubuntu/lammps/bench/aps_result_20220601" command to generate textual and HTML reports for the profiling session.
