LAMMPS (7 Jan 2022)
  using 1 OpenMP thread(s) per MPI task
Reading data file ...
  orthogonal box = (-27.5 -38.5 -36.3646) to (27.5 38.5 36.3615)
  4 by 4 by 4 MPI processor grid
  reading atoms ...
  32000 atoms
  reading velocities ...
  32000 velocities
  scanning bonds ...
  4 = max bonds/atom
  scanning angles ...
  8 = max angles/atom
  scanning dihedrals ...
  18 = max dihedrals/atom
  scanning impropers ...
  2 = max impropers/atom
  reading bonds ...
  27723 bonds
  reading angles ...
  40467 angles
  reading dihedrals ...
  56829 dihedrals
  reading impropers ...
  1034 impropers
Finding 1-2 1-3 1-4 neighbors ...
  special bond factors lj:    0        0        0       
  special bond factors coul:  0        0        0       
     4 = max # of 1-2 neighbors
    12 = max # of 1-3 neighbors
    24 = max # of 1-4 neighbors
    26 = max # of special neighbors
  special bonds CPU = 0.030 seconds
  read_data CPU = 0.363 seconds
Replicating atoms ...
  orthogonal box = (-27.5 -38.5 -36.3646) to (82.5 115.5 109.0876)
  4 by 4 by 4 MPI processor grid
  256000 atoms
  221784 bonds
  323736 angles
  454632 dihedrals
  8272 impropers
Finding 1-2 1-3 1-4 neighbors ...
  special bond factors lj:    0        0        0       
  special bond factors coul:  0        0        0       
     4 = max # of 1-2 neighbors
    12 = max # of 1-3 neighbors
    24 = max # of 1-4 neighbors
    26 = max # of special neighbors
  special bonds CPU = 0.035 seconds
  replicate CPU = 0.071 seconds
Finding SHAKE clusters ...
   12936 = # of size 2 clusters
   29064 = # of size 3 clusters
    5976 = # of size 4 clusters
   33864 = # of frozen angles
  find clusters CPU = 0.016 seconds
PPPM initialization ...
  using 12-bit tables for long-range coulomb (../kspace.cpp:340)
  G vector (1/distance) = 0.25045586
  grid = 45 60 60
  stencil order = 7
  estimated absolute RMS force accuracy = 0.032785255
  estimated relative force accuracy = 9.8731821e-05
  using single precision MKL FFT
  3d grid and FFT values/proc = 9196 2880
----------------------------------------------------------
Using INTEL Package without Coprocessor.
Compiler: Intel Classic C++ 20.21.5 / Intel(R) C++ g++ 9.3 mode
SIMD compiler directives: Enabled
Precision: mixed
----------------------------------------------------------
  generated 2278 of 2278 mixed pair_coeff terms from arithmetic mixing rule
Neighbor list info ...
  update every 1 steps, delay 5 steps, check yes
  max neighbors/atom: 2000, page size: 100000
  master list distance cutoff = 12
  ghost atom cutoff = 12
  binsize = 6, bins = 19 26 25
  1 neighbor lists, perpetual/occasional/extra = 1 0 0
  (1) pair lj/charmm/coul/long/intel, perpetual
      attributes: half, newton on, intel
      pair build: half/bin/newton/intel
      stencil: half/bin/3d
      bin: intel
Setting up Verlet run ...
  Unit style    : real
  Current step  : 0
  Time step     : 2
Per MPI rank memory allocation (min/avg/max) = 71.03 | 71.67 | 72.31 Mbytes
---------------- Step        0 ----- CPU =      0.0000 (sec) ----------------
TotEng   =   -202864.5380 KinEng   =    171558.6503 Temp     =       299.0288 
PotEng   =   -374423.1883 E_bond   =     20303.9370 E_angle  =     87370.9630 
E_dihed  =     41694.2900 E_impro  =      1708.1116 E_vdwl   =    -18462.9090 
E_coul   =   1670250.1019 E_long   =  -2177287.6827 Press    =      -148.4154 
Volume   =   2463960.2680 
---------------- Step       50 ----- CPU =      1.2098 (sec) ----------------
TotEng   =   -202648.8415 KinEng   =    172008.0195 Temp     =       299.8121 
PotEng   =   -374656.8611 E_bond   =     19774.0733 E_angle  =     86693.4471 
E_dihed  =     41917.3644 E_impro  =      1816.9621 E_vdwl   =    -15944.9457 
E_coul   =   1668429.0062 E_long   =  -2177342.7685 Press    =       238.9827 
Volume   =   2464255.7501 
---------------- Step      100 ----- CPU =      2.4217 (sec) ----------------
TotEng   =   -202322.0824 KinEng   =    172719.9007 Temp     =       301.0529 
PotEng   =   -375041.9831 E_bond   =     20544.0858 E_angle  =     86258.0209 
E_dihed  =     41590.1117 E_impro  =      1734.0868 E_vdwl   =    -15193.5335 
E_coul   =   1667326.4580 E_long   =  -2177301.2129 Press    =        13.7577 
Volume   =   2465083.9313 
Loop time of 2.42173 on 64 procs for 100 steps with 256000 atoms

Performance: 7.135 ns/day, 3.364 hours/ns, 41.293 timesteps/s
85.6% CPU use with 64 MPI tasks x 1 OpenMP threads

MPI task timing breakdown:
Section |  min time  |  avg time  |  max time  |%varavg| %total
---------------------------------------------------------------
Pair    | 0.57658    | 0.65944    | 1.1357     |  10.9 | 27.23
Bond    | 0.034206   | 0.039619   | 0.083931   |   3.4 |  1.64
Kspace  | 0.62632    | 1.1785     | 1.2667     |   9.0 | 48.66
Neigh   | 0.13947    | 0.14101    | 0.14274    |   0.2 |  5.82
Comm    | 0.14378    | 0.16446    | 0.19482    |   3.7 |  6.79
Output  | 0.00011172 | 0.00011418 | 0.00020296 |   0.0 |  0.00
Modify  | 0.17514    | 0.20182    | 0.22053    |   3.3 |  8.33
Other   |            | 0.03682    |            |       |  1.52

Nlocal:           4000 ave        4082 max        3941 min
Histogram: 16 8 0 8 16 0 0 0 8 8
Nghost:        16027.6 ave       16083 max       15942 min
Histogram: 8 0 0 16 0 8 0 0 16 16
Neighs:     1.5035e+06 ave 1.55526e+06 max 1.45845e+06 min
Histogram: 12 4 4 10 10 8 0 0 4 12

Total # of neighbors = 96224300
Ave neighs/atom = 375.87617
Ave special neighs/atom = 7.431875
Neighbor list builds = 11
Dangerous builds = 0
Total wall time: 0:00:03
Intel(R) VTune(TM) Profiler 2022.2.0 collection completed successfully. Use the "aps --report /home/ubuntu/lammps/bench/aps_result_20220526" command to generate textual and HTML reports for the profiling session.
