LAMMPS (7 Jan 2022)
  using 1 OpenMP thread(s) per MPI task
Reading data file ...
  orthogonal box = (-27.5 -38.5 -36.3646) to (27.5 38.5 36.3615)
  4 by 4 by 4 MPI processor grid
  reading atoms ...
  32000 atoms
  reading velocities ...
  32000 velocities
  scanning bonds ...
  4 = max bonds/atom
  scanning angles ...
  8 = max angles/atom
  scanning dihedrals ...
  18 = max dihedrals/atom
  scanning impropers ...
  2 = max impropers/atom
  reading bonds ...
  27723 bonds
  reading angles ...
  40467 angles
  reading dihedrals ...
  56829 dihedrals
  reading impropers ...
  1034 impropers
Finding 1-2 1-3 1-4 neighbors ...
  special bond factors lj:    0        0        0       
  special bond factors coul:  0        0        0       
     4 = max # of 1-2 neighbors
    12 = max # of 1-3 neighbors
    24 = max # of 1-4 neighbors
    26 = max # of special neighbors
  special bonds CPU = 0.016 seconds
  read_data CPU = 0.229 seconds
Finding SHAKE clusters ...
    1617 = # of size 2 clusters
    3633 = # of size 3 clusters
     747 = # of size 4 clusters
    4233 = # of frozen angles
  find clusters CPU = 0.012 seconds
PPPM initialization ...
  using 12-bit tables for long-range coulomb (../kspace.cpp:340)
  G vector (1/distance) = 0.25235202
  grid = 24 30 30
  stencil order = 7
  estimated absolute RMS force accuracy = 0.029803316
  estimated relative force accuracy = 8.9751802e-05
  using single precision MKL FFT
  3d grid and FFT values/proc = 2925 384
----------------------------------------------------------
Using INTEL Package without Coprocessor.
Compiler: Intel Classic C++ 20.21.5 / Intel(R) C++ g++ 9.3 mode
SIMD compiler directives: Enabled
Precision: single
----------------------------------------------------------
  generated 2278 of 2278 mixed pair_coeff terms from arithmetic mixing rule
Neighbor list info ...
  update every 1 steps, delay 5 steps, check yes
  max neighbors/atom: 2000, page size: 100000
  master list distance cutoff = 12
  ghost atom cutoff = 12
  binsize = 6, bins = 10 13 13
  1 neighbor lists, perpetual/occasional/extra = 1 0 0
  (1) pair lj/charmm/coul/long/intel, perpetual
      attributes: half, newton on, intel
      pair build: half/bin/newton/intel
      stencil: half/bin/3d
      bin: intel
Setting up Verlet run ...
  Unit style    : real
  Current step  : 0
  Time step     : 2
Per MPI rank memory allocation (min/avg/max) = 22.69 | 23.1 | 23.68 Mbytes
---------------- Step        0 ----- CPU =      0.0000 (sec) ----------------
TotEng   =    -25358.1946 KinEng   =     21444.8313 Temp     =       299.0397 
PotEng   =    -46803.0259 E_bond   =      2537.9949 E_angle  =     10921.3722 
E_dihed  =      5211.7865 E_impro  =       213.5135 E_vdwl   =     -2307.8644 
E_coul   =    210834.7386 E_long   =   -274214.5673 Press    =      -148.6981 
Volume   =    307995.0335 
---------------- Step       50 ----- CPU =      0.1170 (sec) ----------------
TotEng   =    -25332.0808 KinEng   =     21500.5532 Temp     =       299.8167 
PotEng   =    -46832.6341 E_bond   =      2471.7288 E_angle  =     10836.5740 
E_dihed  =      5239.6322 E_impro  =       227.1260 E_vdwl   =     -1993.0554 
E_coul   =    210607.0330 E_long   =   -274221.6727 Press    =       238.8150 
Volume   =    308031.9399 
---------------- Step      100 ----- CPU =      0.2252 (sec) ----------------
TotEng   =    -25292.3612 KinEng   =     21588.2736 Temp     =       301.0399 
PotEng   =    -46880.6348 E_bond   =      2567.8551 E_angle  =     10781.8530 
E_dihed  =      5198.6690 E_impro  =       216.7636 E_vdwl   =     -1899.0566 
E_coul   =    210469.7602 E_long   =   -274216.4792 Press    =        14.2848 
Volume   =    308135.3245 
---------------- Step      150 ----- CPU =      0.3311 (sec) ----------------
TotEng   =    -25260.2114 KinEng   =     21534.2368 Temp     =       300.2864 
PotEng   =    -46794.4482 E_bond   =      2556.6717 E_angle  =     10854.0526 
E_dihed  =      5264.4453 E_impro  =       203.0089 E_vdwl   =     -2074.2829 
E_coul   =    210608.0847 E_long   =   -274206.4284 Press    =       244.0012 
Volume   =    308518.6074 
---------------- Step      200 ----- CPU =      0.4335 (sec) ----------------
TotEng   =    -25078.8509 KinEng   =     21540.6187 Temp     =       300.3754 
PotEng   =    -46619.4697 E_bond   =      2489.3953 E_angle  =     11075.6304 
E_dihed  =      5221.5620 E_impro  =       232.4384 E_vdwl   =     -2148.5010 
E_coul   =    210715.4238 E_long   =   -274205.4186 Press    =        40.8517 
Volume   =    308999.3950 
---------------- Step      250 ----- CPU =      0.5372 (sec) ----------------
TotEng   =    -24960.5853 KinEng   =     21534.4981 Temp     =       300.2900 
PotEng   =    -46495.0835 E_bond   =      2541.5648 E_angle  =     11095.4183 
E_dihed  =      5245.5948 E_impro  =       213.5402 E_vdwl   =     -2163.5432 
E_coul   =    210795.2395 E_long   =   -274222.8980 Press    =      -154.8792 
Volume   =    309392.5550 
---------------- Step      300 ----- CPU =      0.6363 (sec) ----------------
TotEng   =    -25027.9695 KinEng   =     21526.2857 Temp     =       300.1755 
PotEng   =    -46554.2552 E_bond   =      2560.6177 E_angle  =     10926.0828 
E_dihed  =      5220.7716 E_impro  =       224.2292 E_vdwl   =     -2164.9062 
E_coul   =    210887.0172 E_long   =   -274208.0677 Press    =      -379.1413 
Volume   =    309705.2616 
---------------- Step      350 ----- CPU =      0.7368 (sec) ----------------
TotEng   =    -25146.7176 KinEng   =     21592.1247 Temp     =       301.0936 
PotEng   =    -46738.8423 E_bond   =      2579.8837 E_angle  =     10957.9503 
E_dihed  =      5250.3953 E_impro  =       209.8258 E_vdwl   =     -2028.0496 
E_coul   =    210514.7736 E_long   =   -274223.6214 Press    =      -317.1997 
Volume   =    309849.4752 
---------------- Step      400 ----- CPU =      0.8351 (sec) ----------------
TotEng   =    -25289.4726 KinEng   =     21375.1196 Temp     =       298.0676 
PotEng   =    -46664.5922 E_bond   =      2542.1984 E_angle  =     10925.3884 
E_dihed  =      5216.2498 E_impro  =       216.0046 E_vdwl   =     -1978.3205 
E_coul   =    210623.9262 E_long   =   -274210.0391 Press    =       271.6512 
Volume   =    309897.9193 
---------------- Step      450 ----- CPU =      0.9386 (sec) ----------------
TotEng   =    -25330.7690 KinEng   =     21458.4964 Temp     =       299.2302 
PotEng   =    -46789.2654 E_bond   =      2496.4259 E_angle  =     10917.7275 
E_dihed  =      5272.1805 E_impro  =       223.9495 E_vdwl   =     -2149.7225 
E_coul   =    210656.8375 E_long   =   -274206.6638 Press    =       185.0357 
Volume   =    310006.1070 
---------------- Step      500 ----- CPU =      1.0375 (sec) ----------------
TotEng   =    -25154.9585 KinEng   =     21657.0407 Temp     =       301.9989 
PotEng   =    -46811.9993 E_bond   =      2584.8557 E_angle  =     10907.6184 
E_dihed  =      5235.5275 E_impro  =       222.0930 E_vdwl   =     -2115.6699 
E_coul   =    210562.7183 E_long   =   -274209.1422 Press    =      -201.4117 
Volume   =    310055.0213 
---------------- Step      550 ----- CPU =      1.1387 (sec) ----------------
TotEng   =    -24979.6039 KinEng   =     21655.1364 Temp     =       301.9723 
PotEng   =    -46634.7403 E_bond   =      2555.3036 E_angle  =     10963.4242 
E_dihed  =      5206.2117 E_impro  =       232.9295 E_vdwl   =     -2178.8334 
E_coul   =    210789.9612 E_long   =   -274203.7372 Press    =       249.3772 
Volume   =    310094.0215 
---------------- Step      600 ----- CPU =      1.2398 (sec) ----------------
TotEng   =    -24874.5146 KinEng   =     21608.5156 Temp     =       301.3222 
PotEng   =    -46483.0302 E_bond   =      2530.7756 E_angle  =     10973.6375 
E_dihed  =      5293.9729 E_impro  =       232.4149 E_vdwl   =     -2079.0100 
E_coul   =    210775.7986 E_long   =   -274210.6198 Press    =       172.1188 
Volume   =    310225.5418 
Loop time of 1.23991 on 64 procs for 600 steps with 32000 atoms

Performance: 83.619 ns/day, 0.287 hours/ns, 483.905 timesteps/s
95.0% CPU use with 64 MPI tasks x 1 OpenMP threads

MPI task timing breakdown:
Section |  min time  |  avg time  |  max time  |%varavg| %total
---------------------------------------------------------------
Pair    | 0.41099    | 0.48658    | 0.57571    |   5.8 | 39.24
Bond    | 0.0047121  | 0.030267   | 0.050605   |   8.6 |  2.44
Kspace  | 0.25236    | 0.35894    | 0.42743    |   6.7 | 28.95
Neigh   | 0.096878   | 0.098265   | 0.099168   |   0.2 |  7.93
Comm    | 0.11053    | 0.11502    | 0.11888    |   0.5 |  9.28
Output  | 0.00056453 | 0.00057536 | 0.00080968 |   0.0 |  0.05
Modify  | 0.13047    | 0.13956    | 0.14515    |   0.9 | 11.26
Other   |            | 0.01071    |            |       |  0.86

Nlocal:            500 ave         537 max         459 min
Histogram: 2 3 3 10 10 15 6 8 5 2
Nghost:        6624.11 ave        6699 max        6516 min
Histogram: 2 4 4 4 9 7 11 9 5 9
Neighs:         186670 ave      205509 max      167780 min
Histogram: 1 6 7 11 7 7 10 10 3 2

Total # of neighbors = 11946880
Ave neighs/atom = 373.34
Ave special neighs/atom = 7.431875
Neighbor list builds = 66
Dangerous builds = 0
Total wall time: 0:00:01
Intel(R) VTune(TM) Profiler 2022.2.0 collection completed successfully. Use the "aps --report /home/ubuntu/lammps/bench/aps_result_20220601" command to generate textual and HTML reports for the profiling session.
