LAMMPS (7 Jan 2022)
  using 1 OpenMP thread(s) per MPI task
Reading data file ...
  orthogonal box = (-27.5 -38.5 -36.3646) to (27.5 38.5 36.3615)
  2 by 4 by 2 MPI processor grid
  reading atoms ...
  32000 atoms
  reading velocities ...
  32000 velocities
  scanning bonds ...
  4 = max bonds/atom
  scanning angles ...
  8 = max angles/atom
  scanning dihedrals ...
  18 = max dihedrals/atom
  scanning impropers ...
  2 = max impropers/atom
  reading bonds ...
  27723 bonds
  reading angles ...
  40467 angles
  reading dihedrals ...
  56829 dihedrals
  reading impropers ...
  1034 impropers
Finding 1-2 1-3 1-4 neighbors ...
  special bond factors lj:    0        0        0       
  special bond factors coul:  0        0        0       
     4 = max # of 1-2 neighbors
    12 = max # of 1-3 neighbors
    24 = max # of 1-4 neighbors
    26 = max # of special neighbors
  special bonds CPU = 0.004 seconds
  read_data CPU = 0.239 seconds
Finding SHAKE clusters ...
    1617 = # of size 2 clusters
    3633 = # of size 3 clusters
     747 = # of size 4 clusters
    4233 = # of frozen angles
  find clusters CPU = 0.002 seconds
PPPM initialization ...
  using 12-bit tables for long-range coulomb (../kspace.cpp:340)
  G vector (1/distance) = 0.36459658
  grid = 72 90 90
  stencil order = 7
  estimated absolute RMS force accuracy = 2.9424815e-05
  estimated relative force accuracy = 8.8611958e-08
  using single precision MKL FFT
  3d grid and FFT values/proc = 77760 38880
----------------------------------------------------------
Using INTEL Package without Coprocessor.
Compiler: Intel Classic C++ 20.21.5 / Intel(R) C++ g++ 9.3 mode
SIMD compiler directives: Enabled
Precision: mixed
----------------------------------------------------------
  generated 2278 of 2278 mixed pair_coeff terms from arithmetic mixing rule
Neighbor list info ...
  update every 1 steps, delay 5 steps, check yes
  max neighbors/atom: 2000, page size: 100000
  master list distance cutoff = 12
  ghost atom cutoff = 12
  binsize = 6, bins = 10 13 13
  1 neighbor lists, perpetual/occasional/extra = 1 0 0
  (1) pair lj/charmm/coul/long/intel, perpetual
      attributes: half, newton on, intel
      pair build: half/bin/newton/intel
      stencil: half/bin/3d
      bin: intel
Setting up Verlet run ...
  Unit style    : real
  Current step  : 0
  Time step     : 2
Per MPI rank memory allocation (min/avg/max) = 40.08 | 40.62 | 41.23 Mbytes
---------------- Step        0 ----- CPU =      0.0000 (sec) ----------------
TotEng   =    -25359.1533 KinEng   =     21444.8313 Temp     =       299.0397 
PotEng   =    -46803.9846 E_bond   =      2537.9949 E_angle  =     10921.3721 
E_dihed  =      5211.7865 E_impro  =       213.5135 E_vdwl   =     -2307.8639 
E_coul   =    331724.9189 E_long   =   -395105.7067 Press    =      -153.0063 
Volume   =    307995.0335 
---------------- Step       50 ----- CPU =      0.7229 (sec) ----------------
TotEng   =    -25333.6916 KinEng   =     21500.9175 Temp     =       299.8218 
PotEng   =    -46834.6092 E_bond   =      2471.6325 E_angle  =     10836.6396 
E_dihed  =      5239.4533 E_impro  =       227.1319 E_vdwl   =     -1992.5459 
E_coul   =    331510.4598 E_long   =   -395127.3805 Press    =       234.6999 
Volume   =    308031.1010 
---------------- Step      100 ----- CPU =      1.4252 (sec) ----------------
TotEng   =    -25290.1403 KinEng   =     21590.8304 Temp     =       301.0756 
PotEng   =    -46880.9707 E_bond   =      2567.7862 E_angle  =     10781.1984 
E_dihed  =      5198.4884 E_impro  =       216.7497 E_vdwl   =     -1900.3679 
E_coul   =    331377.4560 E_long   =   -395122.2816 Press    =        11.9683 
Volume   =    308132.4355 
---------------- Step      150 ----- CPU =      2.1321 (sec) ----------------
TotEng   =    -25258.2545 KinEng   =     21542.8240 Temp     =       300.4061 
PotEng   =    -46801.0785 E_bond   =      2556.0248 E_angle  =     10855.4170 
E_dihed  =      5264.0269 E_impro  =       203.1591 E_vdwl   =     -2069.4938 
E_coul   =    331494.4323 E_long   =   -395104.6447 Press    =       241.9395 
Volume   =    308516.2447 
---------------- Step      200 ----- CPU =      2.7822 (sec) ----------------
TotEng   =    -25058.8416 KinEng   =     21491.8227 Temp     =       299.6950 
PotEng   =    -46550.6643 E_bond   =      2491.8224 E_angle  =     11071.4432 
E_dihed  =      5225.0362 E_impro  =       232.3330 E_vdwl   =     -2117.4340 
E_coul   =    331672.8200 E_long   =   -395126.6851 Press    =       100.7032 
Volume   =    308994.8709 
---------------- Step      250 ----- CPU =      3.3939 (sec) ----------------
TotEng   =    -24891.9794 KinEng   =     21606.9305 Temp     =       301.3001 
PotEng   =    -46498.9099 E_bond   =      2554.9330 E_angle  =     11109.7628 
E_dihed  =      5250.5966 E_impro  =       221.6874 E_vdwl   =     -2155.9052 
E_coul   =    331639.1441 E_long   =   -395119.1287 Press    =      -151.5151 
Volume   =    309426.4099 
---------------- Step      300 ----- CPU =      3.9040 (sec) ----------------
TotEng   =    -24888.4022 KinEng   =     21621.5124 Temp     =       301.5034 
PotEng   =    -46509.9146 E_bond   =      2569.5935 E_angle  =     10910.7988 
E_dihed  =      5215.5630 E_impro  =       226.3529 E_vdwl   =     -2206.5713 
E_coul   =    331864.5330 E_long   =   -395090.1846 Press    =      -422.1267 
Volume   =    309834.6192 
---------------- Step      350 ----- CPU =      4.4026 (sec) ----------------
TotEng   =    -25082.9390 KinEng   =     21593.8818 Temp     =       301.1181 
PotEng   =    -46676.8208 E_bond   =      2589.3973 E_angle  =     10964.9434 
E_dihed  =      5198.5463 E_impro  =       210.9772 E_vdwl   =     -2149.5595 
E_coul   =    331601.6825 E_long   =   -395092.8080 Press    =      -390.3280 
Volume   =    310125.3212 
---------------- Step      400 ----- CPU =      4.9018 (sec) ----------------
TotEng   =    -25371.2809 KinEng   =     21405.1650 Temp     =       298.4865 
PotEng   =    -46776.4459 E_bond   =      2519.0130 E_angle  =     10972.4619 
E_dihed  =      5181.4336 E_impro  =       222.5949 E_vdwl   =     -2059.4268 
E_coul   =    331490.4120 E_long   =   -395102.9344 Press    =       181.9792 
Volume   =    310268.5702 
---------------- Step      450 ----- CPU =      5.3952 (sec) ----------------
TotEng   =    -25514.8395 KinEng   =     21294.5937 Temp     =       296.9447 
PotEng   =    -46809.4332 E_bond   =      2515.1232 E_angle  =     10801.7147 
E_dihed  =      5307.2555 E_impro  =       215.9043 E_vdwl   =     -2296.4911 
E_coul   =    331753.3079 E_long   =   -395106.2477 Press    =        93.0756 
Volume   =    310290.7742 
---------------- Step      500 ----- CPU =      5.8927 (sec) ----------------
TotEng   =    -25197.9798 KinEng   =     21416.5355 Temp     =       298.6451 
PotEng   =    -46614.5153 E_bond   =      2584.1394 E_angle  =     10907.5934 
E_dihed  =      5254.8939 E_impro  =       220.6752 E_vdwl   =     -2144.9385 
E_coul   =    331658.9784 E_long   =   -395095.8571 Press    =      -214.9627 
Volume   =    310227.1590 
---------------- Step      550 ----- CPU =      6.3877 (sec) ----------------
TotEng   =    -24819.1556 KinEng   =     21708.1436 Temp     =       302.7115 
PotEng   =    -46527.2992 E_bond   =      2522.5955 E_angle  =     10973.9506 
E_dihed  =      5228.1468 E_impro  =       229.2795 E_vdwl   =     -2048.9273 
E_coul   =    331667.6483 E_long   =   -395099.9926 Press    =       330.7395 
Volume   =    310126.9487 
---------------- Step      600 ----- CPU =      6.8789 (sec) ----------------
TotEng   =    -24694.5541 KinEng   =     21580.7418 Temp     =       300.9349 
PotEng   =    -46275.2959 E_bond   =      2573.8461 E_angle  =     11035.6064 
E_dihed  =      5233.7098 E_impro  =       231.0325 E_vdwl   =     -2208.3588 
E_coul   =    331949.6715 E_long   =   -395090.8034 Press    =        -8.7455 
Volume   =    310181.5508 
Loop time of 6.87893 on 16 procs for 600 steps with 32000 atoms

Performance: 15.072 ns/day, 1.592 hours/ns, 87.223 timesteps/s
98.3% CPU use with 16 MPI tasks x 1 OpenMP threads

MPI task timing breakdown:
Section |  min time  |  avg time  |  max time  |%varavg| %total
---------------------------------------------------------------
Pair    | 1.76       | 1.8561     | 1.9593     |   3.2 | 26.98
Bond    | 0.10029    | 0.11521    | 0.13415    |   2.6 |  1.67
Kspace  | 2.194      | 2.2963     | 2.3923     |   2.9 | 33.38
Neigh   | 0.24036    | 0.24108    | 0.24156    |   0.1 |  3.50
Comm    | 0.18479    | 0.25033    | 0.34791    |  13.3 |  3.64
Output  | 0.00060922 | 0.00063002 | 0.00091522 |   0.0 |  0.01
Modify  | 1.7945     | 2.0107     | 2.1605     |  10.5 | 29.23
Other   |            | 0.1086     |            |       |  1.58

Nlocal:           2000 ave        2044 max        1932 min
Histogram: 1 1 1 1 2 0 1 5 2 2
Nghost:        11821.2 ave       11948 max       11721 min
Histogram: 2 1 2 1 2 4 2 1 0 1
Neighs:         746721 ave      773634 max      712226 min
Histogram: 1 1 2 2 0 0 4 3 2 1

Total # of neighbors = 11947537
Ave neighs/atom = 373.36053
Ave special neighs/atom = 7.431875
Neighbor list builds = 66
Dangerous builds = 0
Total wall time: 0:00:07
Intel(R) VTune(TM) Profiler 2022.2.0 collection completed successfully. Use the "aps --report /home/ubuntu/lammps/bench/aps_result_20220601" command to generate textual and HTML reports for the profiling session.
