LAMMPS (7 Jan 2022)
  using 1 OpenMP thread(s) per MPI task
Reading data file ...
  orthogonal box = (-27.5 -38.5 -36.3646) to (27.5 38.5 36.3615)
  2 by 2 by 2 MPI processor grid
  reading atoms ...
  32000 atoms
  reading velocities ...
  32000 velocities
  scanning bonds ...
  4 = max bonds/atom
  scanning angles ...
  8 = max angles/atom
  scanning dihedrals ...
  18 = max dihedrals/atom
  scanning impropers ...
  2 = max impropers/atom
  reading bonds ...
  27723 bonds
  reading angles ...
  40467 angles
  reading dihedrals ...
  56829 dihedrals
  reading impropers ...
  1034 impropers
Finding 1-2 1-3 1-4 neighbors ...
  special bond factors lj:    0        0        0       
  special bond factors coul:  0        0        0       
     4 = max # of 1-2 neighbors
    12 = max # of 1-3 neighbors
    24 = max # of 1-4 neighbors
    26 = max # of special neighbors
  special bonds CPU = 0.004 seconds
  read_data CPU = 0.230 seconds
Finding SHAKE clusters ...
    1617 = # of size 2 clusters
    3633 = # of size 3 clusters
     747 = # of size 4 clusters
    4233 = # of frozen angles
  find clusters CPU = 0.002 seconds
PPPM initialization ...
  using 12-bit tables for long-range coulomb (../kspace.cpp:340)
  G vector (1/distance) = 0.29817009
  grid = 36 45 45
  stencil order = 7
  estimated absolute RMS force accuracy = 0.0023869977
  estimated relative force accuracy = 7.1883728e-06
  using single precision MKL FFT
  3d grid and FFT values/proc = 25947 9720
----------------------------------------------------------
Using INTEL Package without Coprocessor.
Compiler: Intel Classic C++ 20.21.5 / Intel(R) C++ g++ 9.3 mode
SIMD compiler directives: Enabled
Precision: mixed
----------------------------------------------------------
  generated 2278 of 2278 mixed pair_coeff terms from arithmetic mixing rule
Neighbor list info ...
  update every 1 steps, delay 5 steps, check yes
  max neighbors/atom: 2000, page size: 100000
  master list distance cutoff = 12
  ghost atom cutoff = 12
  binsize = 6, bins = 10 13 13
  1 neighbor lists, perpetual/occasional/extra = 1 0 0
  (1) pair lj/charmm/coul/long/intel, perpetual
      attributes: half, newton on, intel
      pair build: half/bin/newton/intel
      stencil: half/bin/3d
      bin: intel
Setting up Verlet run ...
  Unit style    : real
  Current step  : 0
  Time step     : 2
Per MPI rank memory allocation (min/avg/max) = 71.49 | 72.11 | 72.74 Mbytes
---------------- Step        0 ----- CPU =      0.0000 (sec) ----------------
TotEng   =    -25359.0690 KinEng   =     21444.8313 Temp     =       299.0397 
PotEng   =    -46803.9003 E_bond   =      2537.9949 E_angle  =     10921.3721 
E_dihed  =      5211.7865 E_impro  =       213.5135 E_vdwl   =     -2307.8639 
E_coul   =    260369.1642 E_long   =   -323749.8676 Press    =      -152.6956 
Volume   =    307995.0335 
---------------- Step       50 ----- CPU =      0.6472 (sec) ----------------
TotEng   =    -25333.5255 KinEng   =     21500.7905 Temp     =       299.8200 
PotEng   =    -46834.3160 E_bond   =      2471.6506 E_angle  =     10836.6103 
E_dihed  =      5239.4662 E_impro  =       227.1507 E_vdwl   =     -1992.6710 
E_coul   =    260144.9087 E_long   =   -323761.4315 Press    =       234.8663 
Volume   =    308031.1150 
---------------- Step      100 ----- CPU =      1.2995 (sec) ----------------
TotEng   =    -25289.8838 KinEng   =     21589.2034 Temp     =       301.0529 
PotEng   =    -46879.0871 E_bond   =      2567.7807 E_angle  =     10781.3676 
E_dihed  =      5198.5203 E_impro  =       216.7802 E_vdwl   =     -1900.7728 
E_coul   =    260012.3679 E_long   =   -323755.1311 Press    =        12.2953 
Volume   =    308132.5013 
---------------- Step      150 ----- CPU =      1.9520 (sec) ----------------
TotEng   =    -25257.7481 KinEng   =     21549.8931 Temp     =       300.5047 
PotEng   =    -46807.6412 E_bond   =      2555.5423 E_angle  =     10855.8147 
E_dihed  =      5263.9527 E_impro  =       203.1019 E_vdwl   =     -2064.3729 
E_coul   =    260118.5157 E_long   =   -323740.1955 Press    =       246.0885 
Volume   =    308515.0531 
---------------- Step      200 ----- CPU =      2.5561 (sec) ----------------
TotEng   =    -25061.2833 KinEng   =     21488.7689 Temp     =       299.6524 
PotEng   =    -46550.0522 E_bond   =      2493.5774 E_angle  =     11072.1130 
E_dihed  =      5224.8403 E_impro  =       232.1087 E_vdwl   =     -2107.8501 
E_coul   =    260293.9179 E_long   =   -323758.7594 Press    =       108.6676 
Volume   =    308994.3045 
---------------- Step      250 ----- CPU =      3.1013 (sec) ----------------
TotEng   =    -24886.6255 KinEng   =     21544.7632 Temp     =       300.4332 
PotEng   =    -46431.3887 E_bond   =      2556.2917 E_angle  =     11114.9661 
E_dihed  =      5251.4304 E_impro  =       221.0756 E_vdwl   =     -2161.0241 
E_coul   =    260346.1186 E_long   =   -323760.2469 Press    =      -145.1349 
Volume   =    309423.1169 
---------------- Step      300 ----- CPU =      3.5795 (sec) ----------------
TotEng   =    -24896.7152 KinEng   =     21556.3488 Temp     =       300.5947 
PotEng   =    -46453.0640 E_bond   =      2567.3129 E_angle  =     10909.3682 
E_dihed  =      5221.2082 E_impro  =       224.0486 E_vdwl   =     -2165.4922 
E_coul   =    260519.8455 E_long   =   -323729.3551 Press    =      -375.8831 
Volume   =    309815.2792 
---------------- Step      350 ----- CPU =      4.0639 (sec) ----------------
TotEng   =    -25092.9884 KinEng   =     21527.6192 Temp     =       300.1941 
PotEng   =    -46620.6076 E_bond   =      2580.8669 E_angle  =     10975.9782 
E_dihed  =      5203.7669 E_impro  =       209.7696 E_vdwl   =     -2103.1764 
E_coul   =    260256.2462 E_long   =   -323744.0589 Press    =      -347.5174 
Volume   =    310121.6522 
---------------- Step      400 ----- CPU =      4.5397 (sec) ----------------
TotEng   =    -25324.1084 KinEng   =     21409.0883 Temp     =       298.5413 
PotEng   =    -46733.1968 E_bond   =      2524.5524 E_angle  =     10949.8572 
E_dihed  =      5167.4039 E_impro  =       218.0362 E_vdwl   =     -2152.9506 
E_coul   =    260326.0478 E_long   =   -323766.1436 Press    =       215.1429 
Volume   =    310262.0481 
---------------- Step      450 ----- CPU =      5.0154 (sec) ----------------
TotEng   =    -25409.9802 KinEng   =     21489.8915 Temp     =       299.6680 
PotEng   =    -46899.8717 E_bond   =      2514.0259 E_angle  =     10776.2820 
E_dihed  =      5280.4902 E_impro  =       224.1755 E_vdwl   =     -2087.0960 
E_coul   =    260135.1876 E_long   =   -323742.9370 Press    =       242.5825 
Volume   =    310349.4210 
---------------- Step      500 ----- CPU =      5.4997 (sec) ----------------
TotEng   =    -25126.4704 KinEng   =     21384.9724 Temp     =       298.2050 
PotEng   =    -46511.4427 E_bond   =      2603.7350 E_angle  =     10868.6250 
E_dihed  =      5237.1161 E_impro  =       212.4330 E_vdwl   =     -2291.8914 
E_coul   =    260597.0351 E_long   =   -323738.4955 Press    =      -267.9554 
Volume   =    310390.9192 
---------------- Step      550 ----- CPU =      5.9763 (sec) ----------------
TotEng   =    -24680.7306 KinEng   =     21779.7477 Temp     =       303.7100 
PotEng   =    -46460.4783 E_bond   =      2548.3671 E_angle  =     10966.6682 
E_dihed  =      5171.6494 E_impro  =       239.6922 E_vdwl   =     -1958.2701 
E_coul   =    260314.3187 E_long   =   -323742.9037 Press    =       263.5723 
Volume   =    310373.5890 
---------------- Step      600 ----- CPU =      6.4568 (sec) ----------------
TotEng   =    -24623.4990 KinEng   =     21696.3943 Temp     =       302.5476 
PotEng   =    -46319.8933 E_bond   =      2565.9779 E_angle  =     11128.3245 
E_dihed  =      5249.5845 E_impro  =       223.9447 E_vdwl   =     -2172.6134 
E_coul   =    260440.2749 E_long   =   -323755.3863 Press    =       -41.6847 
Volume   =    310404.3544 
Loop time of 6.45692 on 8 procs for 600 steps with 32000 atoms

Performance: 16.057 ns/day, 1.495 hours/ns, 92.924 timesteps/s
98.6% CPU use with 8 MPI tasks x 1 OpenMP threads

MPI task timing breakdown:
Section |  min time  |  avg time  |  max time  |%varavg| %total
---------------------------------------------------------------
Pair    | 3.5328     | 3.6099     | 3.6981     |   2.9 | 55.91
Bond    | 0.2012     | 0.21387    | 0.23244    |   2.1 |  3.31
Kspace  | 1.0689     | 1.1479     | 1.2254     |   5.1 | 17.78
Neigh   | 0.44603    | 0.44655    | 0.4471     |   0.1 |  6.92
Comm    | 0.24563    | 0.26064    | 0.28218    |   3.1 |  4.04
Output  | 0.00056561 | 0.00060489 | 0.00085991 |   0.0 |  0.01
Modify  | 0.68588    | 0.73496    | 0.7663     |   4.2 | 11.38
Other   |            | 0.04243    |            |       |  0.66

Nlocal:           4000 ave        4062 max        3922 min
Histogram: 1 0 0 0 4 0 0 0 2 1
Nghost:        15967.1 ave       16096 max       15899 min
Histogram: 2 0 2 2 0 1 0 0 0 1
Neighs:    1.49273e+06 ave 1.52277e+06 max 1.44908e+06 min
Histogram: 1 0 1 0 1 0 2 0 1 2

Total # of neighbors = 11941870
Ave neighs/atom = 373.18344
Ave special neighs/atom = 7.431875
Neighbor list builds = 65
Dangerous builds = 0
Total wall time: 0:00:06
Intel(R) VTune(TM) Profiler 2022.2.0 collection completed successfully. Use the "aps --report /home/ubuntu/lammps/bench/aps_result_20220601" command to generate textual and HTML reports for the profiling session.
