LAMMPS (7 Jan 2022)
  using 1 OpenMP thread(s) per MPI task
Reading data file ...
  orthogonal box = (-27.5 -38.5 -36.3646) to (27.5 38.5 36.3615)
  2 by 4 by 2 MPI processor grid
  reading atoms ...
  32000 atoms
  reading velocities ...
  32000 velocities
  scanning bonds ...
  4 = max bonds/atom
  scanning angles ...
  8 = max angles/atom
  scanning dihedrals ...
  18 = max dihedrals/atom
  scanning impropers ...
  2 = max impropers/atom
  reading bonds ...
  27723 bonds
  reading angles ...
  40467 angles
  reading dihedrals ...
  56829 dihedrals
  reading impropers ...
  1034 impropers
Finding 1-2 1-3 1-4 neighbors ...
  special bond factors lj:    0        0        0       
  special bond factors coul:  0        0        0       
     4 = max # of 1-2 neighbors
    12 = max # of 1-3 neighbors
    24 = max # of 1-4 neighbors
    26 = max # of special neighbors
  special bonds CPU = 0.005 seconds
  read_data CPU = 0.243 seconds
Replicating atoms ...
  orthogonal box = (-27.5 -38.5 -36.3646) to (192.5 269.5 254.5398)
  2 by 4 by 2 MPI processor grid
  2048000 atoms
  1774272 bonds
  2589888 angles
  3637056 dihedrals
  66176 impropers
Finding 1-2 1-3 1-4 neighbors ...
  special bond factors lj:    0        0        0       
  special bond factors coul:  0        0        0       
     4 = max # of 1-2 neighbors
    12 = max # of 1-3 neighbors
    24 = max # of 1-4 neighbors
    26 = max # of special neighbors
  special bonds CPU = 0.130 seconds
  replicate CPU = 0.240 seconds
Finding SHAKE clusters ...
  103488 = # of size 2 clusters
  232512 = # of size 3 clusters
   47808 = # of size 4 clusters
  270912 = # of frozen angles
  find clusters CPU = 0.062 seconds
PPPM initialization ...
  using 12-bit tables for long-range coulomb (../kspace.cpp:340)
  G vector (1/distance) = 0.36082601
  grid = 270 360 324
  stencil order = 7
  estimated absolute RMS force accuracy = 3.9645452e-05
  estimated relative force accuracy = 1.193911e-07
  using single precision MKL FFT
  3d grid and FFT values/proc = 2437776 2041200
----------------------------------------------------------
Using INTEL Package without Coprocessor.
Compiler: Intel Classic C++ 20.21.5 / Intel(R) C++ g++ 9.3 mode
SIMD compiler directives: Enabled
Precision: mixed
----------------------------------------------------------
  generated 2278 of 2278 mixed pair_coeff terms from arithmetic mixing rule
Neighbor list info ...
  update every 1 steps, delay 5 steps, check yes
  max neighbors/atom: 2000, page size: 100000
  master list distance cutoff = 12
  ghost atom cutoff = 12
  binsize = 6, bins = 37 52 49
  1 neighbor lists, perpetual/occasional/extra = 1 0 0
  (1) pair lj/charmm/coul/long/intel, perpetual
      attributes: half, newton on, intel
      pair build: half/bin/newton/intel
      stencil: half/bin/3d
      bin: intel
Setting up Verlet run ...
  Unit style    : real
  Current step  : 0
  Time step     : 2
Per MPI rank memory allocation (min/avg/max) = 1555 | 1556 | 1560 Mbytes
---------------- Step        0 ----- CPU =      0.0000 (sec) ----------------
TotEng   =  -1622977.8259 KinEng   =   1372469.2022 Temp     =       299.0274 
PotEng   =  -2995447.0280 E_bond   =    162431.7410 E_angle  =    698967.9457 
E_dihed  =    333554.2808 E_impro  =     13664.8915 E_vdwl   =   -147703.2770 
E_coul   =  20972498.9632 E_long   = -25028861.5733 Press    =      -152.9857 
Volume   =  19711682.1440 
---------------- Step       50 ----- CPU =     37.5821 (sec) ----------------
TotEng   =  -1621297.6603 KinEng   =   1376086.2752 Temp     =       299.8155 
PotEng   =  -2997383.9355 E_bond   =    158186.9557 E_angle  =    693554.6271 
E_dihed  =    335326.7071 E_impro  =     14537.2073 E_vdwl   =   -127519.1976 
E_coul   =  20958737.6919 E_long   = -25030207.9270 Press    =       234.7929 
Volume   =  19713990.8232 
---------------- Step      100 ----- CPU =     75.1892 (sec) ----------------
TotEng   =  -1618398.4058 KinEng   =   1381891.2326 Temp     =       301.0803 
PotEng   =  -3000289.6383 E_bond   =    164343.9762 E_angle  =    690028.7723 
E_dihed  =    332708.7405 E_impro  =     13873.8332 E_vdwl   =   -121618.1106 
E_coul   =  20950243.9188 E_long   = -25029870.7689 Press    =        12.2476 
Volume   =  19720480.4353 
Loop time of 75.1892 on 16 procs for 100 steps with 2048000 atoms

Performance: 0.230 ns/day, 104.430 hours/ns, 1.330 timesteps/s
96.1% CPU use with 16 MPI tasks x 1 OpenMP threads

MPI task timing breakdown:
Section |  min time  |  avg time  |  max time  |%varavg| %total
---------------------------------------------------------------
Pair    | 17.609     | 17.758     | 17.862     |   1.8 | 23.62
Bond    | 1.1173     | 1.1302     | 1.143      |   0.7 |  1.50
Kspace  | 35.797     | 35.903     | 36.051     |   1.2 | 47.75
Neigh   | 2.1375     | 2.1396     | 2.142      |   0.1 |  2.85
Comm    | 1.0241     | 1.3138     | 1.4548     |  12.4 |  1.75
Output  | 0.00052144 | 0.00053862 | 0.0006098  |   0.0 |  0.00
Modify  | 16.184     | 16.474     | 17.108     |   7.8 | 21.91
Other   |            | 0.4704     |            |       |  0.63

Nlocal:         128000 ave      128000 max      128000 min
Histogram: 16 0 0 0 0 0 0 0 0 0
Nghost:         109915 ave      109918 max      109913 min
Histogram: 8 0 0 0 2 0 2 0 0 4
Neighs:    4.81125e+07 ave 4.81932e+07 max 4.80287e+07 min
Histogram: 4 0 0 4 0 0 4 0 0 4

Total # of neighbors = 7.6979941e+08
Ave neighs/atom = 375.87862
Ave special neighs/atom = 7.431875
Neighbor list builds = 11
Dangerous builds = 0
Total wall time: 0:01:17
Intel(R) VTune(TM) Profiler 2022.2.0 collection completed successfully. Use the "aps --report /home/ubuntu/lammps/bench/aps_result_20220530" command to generate textual and HTML reports for the profiling session.
