LAMMPS (7 Jan 2022)
  using 1 OpenMP thread(s) per MPI task
Reading data file ...
  orthogonal box = (-27.5 -38.5 -36.3646) to (27.5 38.5 36.3615)
  2 by 4 by 4 MPI processor grid
  reading atoms ...
  32000 atoms
  reading velocities ...
  32000 velocities
  scanning bonds ...
  4 = max bonds/atom
  scanning angles ...
  8 = max angles/atom
  scanning dihedrals ...
  18 = max dihedrals/atom
  scanning impropers ...
  2 = max impropers/atom
  reading bonds ...
  27723 bonds
  reading angles ...
  40467 angles
  reading dihedrals ...
  56829 dihedrals
  reading impropers ...
  1034 impropers
Finding 1-2 1-3 1-4 neighbors ...
  special bond factors lj:    0        0        0       
  special bond factors coul:  0        0        0       
     4 = max # of 1-2 neighbors
    12 = max # of 1-3 neighbors
    24 = max # of 1-4 neighbors
    26 = max # of special neighbors
  special bonds CPU = 0.244 seconds
  read_data CPU = 2.046 seconds
Replicating atoms ...
  orthogonal box = (-27.5 -38.5 -36.3646) to (137.5 192.5 181.8137)
  2 by 4 by 4 MPI processor grid
  864000 atoms
  748521 bonds
  1092609 angles
  1534383 dihedrals
  27918 impropers
Finding 1-2 1-3 1-4 neighbors ...
  special bond factors lj:    0        0        0       
  special bond factors coul:  0        0        0       
     4 = max # of 1-2 neighbors
    12 = max # of 1-3 neighbors
    24 = max # of 1-4 neighbors
    26 = max # of special neighbors
  special bonds CPU = 0.137 seconds
  replicate CPU = 0.271 seconds
Finding SHAKE clusters ...
   43659 = # of size 2 clusters
   98091 = # of size 3 clusters
   20169 = # of size 4 clusters
  114291 = # of frozen angles
  find clusters CPU = 0.108 seconds
PPPM initialization ...
  using 12-bit tables for long-range coulomb (../kspace.cpp:340)
  G vector (1/distance) = 0.25235202
  grid = 72 90 90
  stencil order = 7
  estimated absolute RMS force accuracy = 0.029803316
  estimated relative force accuracy = 8.9751802e-05
  using single precision MKL FFT
  3d grid and FFT values/proc = 38700 19440
----------------------------------------------------------
Using INTEL Package without Coprocessor.
Compiler: Intel Classic C++ 20.21.5 / Intel(R) C++ g++ 9.3 mode
SIMD compiler directives: Enabled
Precision: double
----------------------------------------------------------
  generated 2278 of 2278 mixed pair_coeff terms from arithmetic mixing rule
Neighbor list info ...
  update every 1 steps, delay 5 steps, check yes
  max neighbors/atom: 2000, page size: 100000
  master list distance cutoff = 12
  ghost atom cutoff = 12
  binsize = 6, bins = 28 39 37
  1 neighbor lists, perpetual/occasional/extra = 1 0 0
  (1) pair lj/charmm/coul/long/intel, perpetual
      attributes: half, newton on, intel
      pair build: half/bin/newton/intel
      stencil: half/bin/3d
      bin: intel
Setting up Verlet run ...
  Unit style    : real
  Current step  : 0
  Time step     : 2
Per MPI rank memory allocation (min/avg/max) = 325.7 | 328.4 | 331.3 Mbytes
---------------- Step        0 ----- CPU =      0.0000 (sec) ----------------
TotEng   =   -684670.9567 KinEng   =    579010.4447 Temp     =       299.0277 
PotEng   =  -1263681.4013 E_bond   =     68525.8383 E_angle  =    294877.1036 
E_dihed  =    140718.2355 E_impro  =      5764.8128 E_vdwl   =    -62312.3122 
E_coul   =   5692538.1567 E_long   =  -7403793.2361 Press    =      -148.6832 
Volume   =   8315865.9045 
---------------- Step       50 ----- CPU =      9.2769 (sec) ----------------
TotEng   =   -683945.6179 KinEng   =    580525.8164 Temp     =       299.8103 
PotEng   =  -1264471.4343 E_bond   =     66737.5796 E_angle  =    292591.3991 
E_dihed  =    141470.6781 E_impro  =      6132.4694 E_vdwl   =    -53811.5406 
E_coul   =   5686393.0294 E_long   =  -7403985.0493 Press    =       238.8973 
Volume   =   8316862.5935 
---------------- Step      100 ----- CPU =     18.4959 (sec) ----------------
TotEng   =   -682828.4096 KinEng   =    582914.8330 Temp     =       301.0441 
PotEng   =  -1265743.2426 E_bond   =     69335.3102 E_angle  =    291121.5294 
E_dihed  =    140366.2548 E_impro  =      5852.7806 E_vdwl   =    -51271.5867 
E_coul   =   5682697.2886 E_long   =  -7403844.8194 Press    =        14.5575 
Volume   =   8319656.0564 
Loop time of 18.512 on 32 procs for 100 steps with 864000 atoms

Performance: 0.933 ns/day, 25.711 hours/ns, 5.402 timesteps/s
85.8% CPU use with 32 MPI tasks x 1 OpenMP threads

MPI task timing breakdown:
Section |  min time  |  avg time  |  max time  |%varavg| %total
---------------------------------------------------------------
Pair    | 4.8785     | 5.3166     | 9.7671     |  48.9 | 28.72
Bond    | 0.22027    | 0.29948    | 0.7001     |  19.2 |  1.62
Kspace  | 3.5515     | 8.2777     | 8.8629     |  42.1 | 44.72
Neigh   | 1.1281     | 1.1297     | 1.1464     |   0.3 |  6.10
Comm    | 0.47857    | 0.69588    | 0.92114    |  17.4 |  3.76
Output  | 0.00016224 | 0.00066802 | 0.016257   |   0.0 |  0.00
Modify  | 2.4336     | 2.654      | 2.7162     |   3.9 | 14.34
Other   |            | 0.138      |            |       |  0.75

Nlocal:          27000 ave       27280 max       26661 min
Histogram: 2 1 4 4 3 4 3 5 3 3
Nghost:        43954.6 ave       44303 max       43495 min
Histogram: 2 1 2 4 1 8 2 7 2 3
Neighs:    1.01487e+07 ave 1.03516e+07 max 9.97653e+06 min
Histogram: 4 1 5 4 6 2 4 2 0 4

Total # of neighbors = 3.2475844e+08
Ave neighs/atom = 375.87782
Ave special neighs/atom = 7.431875
Neighbor list builds = 11
Dangerous builds = 0
Total wall time: 0:00:21
Intel(R) VTune(TM) Profiler 2022.2.0 collection completed successfully. Use the "aps --report /home/ubuntu/lammps/bench/aps_result_20220531" command to generate textual and HTML reports for the profiling session.
