LAMMPS (7 Jan 2022)
  using 1 OpenMP thread(s) per MPI task
Reading data file ...
  orthogonal box = (-27.5 -38.5 -36.3646) to (27.5 38.5 36.3615)
  2 by 4 by 4 MPI processor grid
  reading atoms ...
  32000 atoms
  reading velocities ...
  32000 velocities
  scanning bonds ...
  4 = max bonds/atom
  scanning angles ...
  8 = max angles/atom
  scanning dihedrals ...
  18 = max dihedrals/atom
  scanning impropers ...
  2 = max impropers/atom
  reading bonds ...
  27723 bonds
  reading angles ...
  40467 angles
  reading dihedrals ...
  56829 dihedrals
  reading impropers ...
  1034 impropers
Finding 1-2 1-3 1-4 neighbors ...
  special bond factors lj:    0        0        0       
  special bond factors coul:  0        0        0       
     4 = max # of 1-2 neighbors
    12 = max # of 1-3 neighbors
    24 = max # of 1-4 neighbors
    26 = max # of special neighbors
  special bonds CPU = 0.005 seconds
  read_data CPU = 0.249 seconds
Replicating atoms ...
  orthogonal box = (-27.5 -38.5 -36.3646) to (82.5 115.5 109.0876)
  2 by 4 by 4 MPI processor grid
  256000 atoms
  221784 bonds
  323736 angles
  454632 dihedrals
  8272 impropers
Finding 1-2 1-3 1-4 neighbors ...
  special bond factors lj:    0        0        0       
  special bond factors coul:  0        0        0       
     4 = max # of 1-2 neighbors
    12 = max # of 1-3 neighbors
    24 = max # of 1-4 neighbors
    26 = max # of special neighbors
  special bonds CPU = 0.011 seconds
  replicate CPU = 0.032 seconds
Finding SHAKE clusters ...
   12936 = # of size 2 clusters
   29064 = # of size 3 clusters
    5976 = # of size 4 clusters
   33864 = # of frozen angles
  find clusters CPU = 0.006 seconds
PPPM initialization ...
  using 12-bit tables for long-range coulomb (../kspace.cpp:340)
  G vector (1/distance) = 0.25045586
  grid = 45 60 60
  stencil order = 7
  estimated absolute RMS force accuracy = 0.032785255
  estimated relative force accuracy = 9.8731821e-05
  using single precision MKL FFT
  3d grid and FFT values/proc = 14520 5400
----------------------------------------------------------
Using INTEL Package without Coprocessor.
Compiler: Intel Classic C++ 20.21.5 / Intel(R) C++ g++ 9.3 mode
SIMD compiler directives: Enabled
Precision: mixed
----------------------------------------------------------
  generated 2278 of 2278 mixed pair_coeff terms from arithmetic mixing rule
Neighbor list info ...
  update every 1 steps, delay 5 steps, check yes
  max neighbors/atom: 2000, page size: 100000
  master list distance cutoff = 12
  ghost atom cutoff = 12
  binsize = 6, bins = 19 26 25
  1 neighbor lists, perpetual/occasional/extra = 1 0 0
  (1) pair lj/charmm/coul/long/intel, perpetual
      attributes: half, newton on, intel
      pair build: half/bin/newton/intel
      stencil: half/bin/3d
      bin: intel
Setting up Verlet run ...
  Unit style    : real
  Current step  : 0
  Time step     : 2
Per MPI rank memory allocation (min/avg/max) = 106.8 | 107.3 | 108.4 Mbytes
---------------- Step        0 ----- CPU =      0.0000 (sec) ----------------
TotEng   =   -202864.5379 KinEng   =    171558.6503 Temp     =       299.0288 
PotEng   =   -374423.1882 E_bond   =     20303.9370 E_angle  =     87370.9630 
E_dihed  =     41694.2900 E_impro  =      1708.1116 E_vdwl   =    -18462.9090 
E_coul   =   1670250.1020 E_long   =  -2177287.6827 Press    =      -148.4154 
Volume   =   2463960.2680 
---------------- Step       50 ----- CPU =      1.1517 (sec) ----------------
TotEng   =   -202648.8510 KinEng   =    172008.0168 Temp     =       299.8121 
PotEng   =   -374656.8678 E_bond   =     19774.0816 E_angle  =     86693.3746 
E_dihed  =     41917.3557 E_impro  =      1816.9955 E_vdwl   =    -15944.9402 
E_coul   =   1668429.0306 E_long   =  -2177342.7656 Press    =       238.9831 
Volume   =   2464255.7507 
---------------- Step      100 ----- CPU =      2.3147 (sec) ----------------
TotEng   =   -202322.0181 KinEng   =    172719.9233 Temp     =       301.0529 
PotEng   =   -375041.9414 E_bond   =     20544.0320 E_angle  =     86258.0075 
E_dihed  =     41590.1048 E_impro  =      1734.1211 E_vdwl   =    -15193.5468 
E_coul   =   1667326.5236 E_long   =  -2177301.1836 Press    =        13.7557 
Volume   =   2465083.9295 
---------------- Step      150 ----- CPU =      3.4355 (sec) ----------------
TotEng   =   -202065.2750 KinEng   =    172251.6747 Temp     =       300.2367 
PotEng   =   -374316.9497 E_bond   =     20454.1924 E_angle  =     86834.9095 
E_dihed  =     42116.9139 E_impro  =      1624.6108 E_vdwl   =    -16578.3848 
E_coul   =   1668456.4073 E_long   =  -2177225.5988 Press    =       245.4719 
Volume   =   2468149.4453 
---------------- Step      200 ----- CPU =      4.3738 (sec) ----------------
TotEng   =   -200637.7055 KinEng   =    172238.4550 Temp     =       300.2137 
PotEng   =   -372876.1605 E_bond   =     19915.7168 E_angle  =     88600.8082 
E_dihed  =     41769.2390 E_impro  =      1860.2113 E_vdwl   =    -17200.6091 
E_coul   =   1669422.6692 E_long   =  -2177244.1959 Press    =        44.8184 
Volume   =   2471990.9754 
---------------- Step      250 ----- CPU =      5.3239 (sec) ----------------
TotEng   =   -199651.0664 KinEng   =    172654.5461 Temp     =       300.9390 
PotEng   =   -372305.6125 E_bond   =     20335.0903 E_angle  =     88801.4041 
E_dihed  =     41952.9622 E_impro  =      1700.7103 E_vdwl   =    -17045.4188 
E_coul   =   1669320.9552 E_long   =  -2177371.3159 Press    =      -140.2301 
Volume   =   2475150.4703 
---------------- Step      300 ----- CPU =      6.2759 (sec) ----------------
TotEng   =   -200324.1266 KinEng   =    171640.3095 Temp     =       299.1711 
PotEng   =   -371964.4361 E_bond   =     20480.8240 E_angle  =     87359.7401 
E_dihed  =     41773.4009 E_impro  =      1784.9127 E_vdwl   =    -17937.2096 
E_coul   =   1671757.7165 E_long   =  -2177183.8206 Press    =      -418.1192 
Volume   =   2477554.3696 
---------------- Step      350 ----- CPU =      7.2240 (sec) ----------------
TotEng   =   -201575.9488 KinEng   =    172238.4660 Temp     =       300.2137 
PotEng   =   -373814.4148 E_bond   =     20579.7177 E_angle  =     87534.0794 
E_dihed  =     42039.9864 E_impro  =      1663.6092 E_vdwl   =    -17555.9175 
E_coul   =   1669140.2033 E_long   =  -2177216.0933 Press    =      -429.6755 
Volume   =   2478520.8642 
---------------- Step      400 ----- CPU =      8.1707 (sec) ----------------
TotEng   =   -202651.8761 KinEng   =    171579.6676 Temp     =       299.0654 
PotEng   =   -374231.5437 E_bond   =     20249.8878 E_angle  =     87233.4250 
E_dihed  =     41827.2753 E_impro  =      1745.1431 E_vdwl   =    -16618.1213 
E_coul   =   1668617.2010 E_long   =  -2177286.3546 Press    =       137.5043 
Volume   =   2478358.3040 
---------------- Step      450 ----- CPU =      9.1187 (sec) ----------------
TotEng   =   -202890.9669 KinEng   =    171558.5649 Temp     =       299.0286 
PotEng   =   -374449.5318 E_bond   =     19931.2773 E_angle  =     87118.1480 
E_dihed  =     42127.6780 E_impro  =      1788.6328 E_vdwl   =    -16712.9130 
E_coul   =   1668483.4072 E_long   =  -2177185.7621 Press    =       253.4152 
Volume   =   2478048.7578 
---------------- Step      500 ----- CPU =     10.0660 (sec) ----------------
TotEng   =   -200839.0476 KinEng   =    172097.4381 Temp     =       299.9679 
PotEng   =   -372936.4858 E_bond   =     20591.3340 E_angle  =     87260.4008 
E_dihed  =     42096.9058 E_impro  =      1764.9482 E_vdwl   =    -16158.7599 
E_coul   =   1668705.4464 E_long   =  -2177196.7610 Press    =      -126.3294 
Volume   =   2478101.3311 
---------------- Step      550 ----- CPU =     11.0111 (sec) ----------------
TotEng   =   -198595.6562 KinEng   =    173252.0187 Temp     =       301.9804 
PotEng   =   -371847.6749 E_bond   =     20344.5686 E_angle  =     87540.0427 
E_dihed  =     41672.0993 E_impro  =      1862.1940 E_vdwl   =    -16465.9744 
E_coul   =   1670427.4829 E_long   =  -2177228.0881 Press    =       357.8294 
Volume   =   2479081.8415 
---------------- Step      600 ----- CPU =     11.9595 (sec) ----------------
TotEng   =   -198160.3721 KinEng   =    173585.5688 Temp     =       302.5617 
PotEng   =   -371745.9408 E_bond   =     20496.2601 E_angle  =     88089.9979 
E_dihed  =     42037.8901 E_impro  =      1758.1026 E_vdwl   =    -17699.5506 
E_coul   =   1670806.1088 E_long   =  -2177234.7497 Press    =        14.1647 
Volume   =   2481288.8421 
---------------- Step      650 ----- CPU =     12.9085 (sec) ----------------
TotEng   =   -199781.9679 KinEng   =    173024.7535 Temp     =       301.5842 
PotEng   =   -372806.7215 E_bond   =     20324.5675 E_angle  =     86734.1720 
E_dihed  =     41966.3743 E_impro  =      1712.0006 E_vdwl   =    -17732.3557 
E_coul   =   1671403.7286 E_long   =  -2177215.2088 Press    =      -210.1435 
Volume   =   2482728.9927 
---------------- Step      700 ----- CPU =     13.8543 (sec) ----------------
TotEng   =   -201468.7467 KinEng   =    171855.7447 Temp     =       299.5466 
PotEng   =   -373324.4914 E_bond   =     20003.7775 E_angle  =     87438.7562 
E_dihed  =     41962.5578 E_impro  =      1736.7576 E_vdwl   =    -17469.5932 
E_coul   =   1670276.5425 E_long   =  -2177273.2897 Press    =       160.5660 
Volume   =   2483749.6628 
---------------- Step      750 ----- CPU =     14.8076 (sec) ----------------
TotEng   =   -201821.7502 KinEng   =    170854.6979 Temp     =       297.8018 
PotEng   =   -372676.4481 E_bond   =     20482.0075 E_angle  =     87859.2312 
E_dihed  =     42133.0109 E_impro  =      1711.9046 E_vdwl   =    -17203.4914 
E_coul   =   1669615.4765 E_long   =  -2177274.5873 Press    =       144.3521 
Volume   =   2484166.5076 
---------------- Step      800 ----- CPU =     15.7545 (sec) ----------------
TotEng   =   -200978.3145 KinEng   =    171783.8367 Temp     =       299.4213 
PotEng   =   -372762.1512 E_bond   =     20116.3962 E_angle  =     88008.8706 
E_dihed  =     42122.6018 E_impro  =      1756.3219 E_vdwl   =    -16784.1051 
E_coul   =   1669200.8336 E_long   =  -2177183.0701 Press    =       -79.0899 
Volume   =   2484052.6801 
---------------- Step      850 ----- CPU =     16.7263 (sec) ----------------
TotEng   =   -199473.4578 KinEng   =    172622.9289 Temp     =       300.8838 
PotEng   =   -372096.3867 E_bond   =     20329.2722 E_angle  =     87754.0592 
E_dihed  =     42265.9813 E_impro  =      1743.8940 E_vdwl   =    -16828.9865 
E_coul   =   1669823.8816 E_long   =  -2177184.4885 Press    =        44.6363 
Volume   =   2483165.1484 
---------------- Step      900 ----- CPU =     17.6752 (sec) ----------------
TotEng   =   -198695.2958 KinEng   =    172616.4737 Temp     =       300.8726 
PotEng   =   -371311.7695 E_bond   =     20376.0475 E_angle  =     88004.8688 
E_dihed  =     42399.8410 E_impro  =      1906.6392 E_vdwl   =    -16445.4618 
E_coul   =   1669671.3831 E_long   =  -2177225.0874 Press    =       190.9431 
Volume   =   2481479.6575 
---------------- Step      950 ----- CPU =     18.6251 (sec) ----------------
TotEng   =   -199287.1150 KinEng   =    172373.5445 Temp     =       300.4492 
PotEng   =   -371660.6595 E_bond   =     20347.2937 E_angle  =     88510.7092 
E_dihed  =     42296.3975 E_impro  =      1848.6255 E_vdwl   =    -16887.7278 
E_coul   =   1669437.5241 E_long   =  -2177213.4816 Press    =       -48.4790 
Volume   =   2479701.3890 
---------------- Step     1000 ----- CPU =     19.5728 (sec) ----------------
TotEng   =   -200943.5145 KinEng   =    172125.5833 Temp     =       300.0170 
PotEng   =   -373069.0978 E_bond   =     20442.8165 E_angle  =     87845.3527 
E_dihed  =     41972.2612 E_impro  =      1731.9609 E_vdwl   =    -16559.8197 
E_coul   =   1668760.0460 E_long   =  -2177261.7154 Press    =        98.9674 
Volume   =   2478144.6329 
---------------- Step     1050 ----- CPU =     20.5254 (sec) ----------------
TotEng   =   -202435.4222 KinEng   =    171245.0570 Temp     =       298.4822 
PotEng   =   -373680.4792 E_bond   =     20186.9187 E_angle  =     88066.8449 
E_dihed  =     41755.2449 E_impro  =      1806.9414 E_vdwl   =    -16668.0401 
E_coul   =   1668436.9715 E_long   =  -2177265.3606 Press    =      -115.2733 
Volume   =   2476872.6930 
---------------- Step     1100 ----- CPU =     21.4939 (sec) ----------------
TotEng   =   -202524.9379 KinEng   =    171013.2247 Temp     =       298.0781 
PotEng   =   -373538.1626 E_bond   =     20467.0186 E_angle  =     87640.8725 
E_dihed  =     42105.8820 E_impro  =      1825.2063 E_vdwl   =    -17007.6071 
E_coul   =   1668731.4004 E_long   =  -2177300.9351 Press    =       142.2575 
Volume   =   2475516.5566 
---------------- Step     1150 ----- CPU =     22.4478 (sec) ----------------
TotEng   =   -201357.4203 KinEng   =    172076.5198 Temp     =       299.9315 
PotEng   =   -373433.9401 E_bond   =     20536.5534 E_angle  =     87646.2143 
E_dihed  =     42250.7462 E_impro  =      1746.3993 E_vdwl   =    -16995.2544 
E_coul   =   1668651.1006 E_long   =  -2177269.6995 Press    =       -26.0093 
Volume   =   2474155.8575 
---------------- Step     1200 ----- CPU =     23.4069 (sec) ----------------
TotEng   =   -199860.1437 KinEng   =    172661.9648 Temp     =       300.9519 
PotEng   =   -372522.1084 E_bond   =     20634.3286 E_angle  =     87592.8749 
E_dihed  =     42334.7652 E_impro  =      1805.7510 E_vdwl   =    -16926.1275 
E_coul   =   1669293.0211 E_long   =  -2177256.7216 Press    =        54.2827 
Volume   =   2472933.6989 
---------------- Step     1250 ----- CPU =     24.3593 (sec) ----------------
TotEng   =   -199060.2529 KinEng   =    173080.2863 Temp     =       301.6810 
PotEng   =   -372140.5393 E_bond   =     20642.5493 E_angle  =     88238.9360 
E_dihed  =     42197.8495 E_impro  =      1781.3626 E_vdwl   =    -16772.1454 
E_coul   =   1669012.2729 E_long   =  -2177241.3642 Press    =       105.0988 
Volume   =   2472934.0439 
---------------- Step     1300 ----- CPU =     25.3096 (sec) ----------------
TotEng   =   -199973.6802 KinEng   =    172802.2217 Temp     =       301.1964 
PotEng   =   -372775.9019 E_bond   =     20698.0281 E_angle  =     88009.8413 
E_dihed  =     42286.9896 E_impro  =      1798.6545 E_vdwl   =    -17090.8070 
E_coul   =   1668804.5778 E_long   =  -2177283.1861 Press    =        13.1976 
Volume   =   2473344.1208 
---------------- Step     1350 ----- CPU =     26.2632 (sec) ----------------
TotEng   =   -201393.6573 KinEng   =    171584.6244 Temp     =       299.0741 
PotEng   =   -372978.2818 E_bond   =     20630.6550 E_angle  =     87534.3574 
E_dihed  =     42167.2425 E_impro  =      1846.2146 E_vdwl   =    -16833.3293 
E_coul   =   1668937.0818 E_long   =  -2177260.5038 Press    =      -116.1777 
Volume   =   2473901.7459 
---------------- Step     1400 ----- CPU =     27.2444 (sec) ----------------
TotEng   =   -201883.1547 KinEng   =    171547.9491 Temp     =       299.0101 
PotEng   =   -373431.1038 E_bond   =     20494.8727 E_angle  =     87484.6725 
E_dihed  =     42081.9802 E_impro  =      1792.8791 E_vdwl   =    -16957.8456 
E_coul   =   1668923.4725 E_long   =  -2177251.1352 Press    =        11.8288 
Volume   =   2474567.2943 
---------------- Step     1450 ----- CPU =     28.2018 (sec) ----------------
TotEng   =   -200982.2583 KinEng   =    172069.6520 Temp     =       299.9195 
PotEng   =   -373051.9103 E_bond   =     20537.9889 E_angle  =     87911.7146 
E_dihed  =     42120.8577 E_impro  =      1767.4108 E_vdwl   =    -16981.8565 
E_coul   =   1668892.4154 E_long   =  -2177300.4412 Press    =       -62.4870 
Volume   =   2475266.4237 
---------------- Step     1500 ----- CPU =     29.1611 (sec) ----------------
TotEng   =   -199944.9839 KinEng   =    172733.1448 Temp     =       301.0760 
PotEng   =   -372678.1287 E_bond   =     20853.4813 E_angle  =     87853.0217 
E_dihed  =     42250.1899 E_impro  =      1787.0145 E_vdwl   =    -16976.2447 
E_coul   =   1668830.9193 E_long   =  -2177276.5107 Press    =      -154.9575 
Volume   =   2475416.0283 
---------------- Step     1550 ----- CPU =     30.1175 (sec) ----------------
TotEng   =   -199762.9303 KinEng   =    172543.2399 Temp     =       300.7450 
PotEng   =   -372306.1702 E_bond   =     20664.5618 E_angle  =     87819.4879 
E_dihed  =     42208.6517 E_impro  =      1802.1253 E_vdwl   =    -17094.9465 
E_coul   =   1669580.7168 E_long   =  -2177286.7672 Press    =       -75.3224 
Volume   =   2475417.9019 
---------------- Step     1600 ----- CPU =     31.0761 (sec) ----------------
TotEng   =   -200542.9267 KinEng   =    172313.3929 Temp     =       300.3443 
PotEng   =   -372856.3197 E_bond   =     20666.7520 E_angle  =     87494.7256 
E_dihed  =     42166.9354 E_impro  =      1740.4303 E_vdwl   =    -17048.5598 
E_coul   =   1669360.1405 E_long   =  -2177236.7436 Press    =      -111.8906 
Volume   =   2475357.0622 
---------------- Step     1650 ----- CPU =     32.0382 (sec) ----------------
TotEng   =   -201682.3834 KinEng   =    171551.8007 Temp     =       299.0169 
PotEng   =   -373234.1841 E_bond   =     20560.7365 E_angle  =     88040.2933 
E_dihed  =     42084.3676 E_impro  =      1770.6645 E_vdwl   =    -16772.6890 
E_coul   =   1668312.7953 E_long   =  -2177230.3524 Press    =       -56.3789 
Volume   =   2474587.4936 
---------------- Step     1700 ----- CPU =     32.9956 (sec) ----------------
TotEng   =   -202146.1609 KinEng   =    171747.6378 Temp     =       299.3582 
PotEng   =   -373893.7988 E_bond   =     20453.5399 E_angle  =     87350.1346 
E_dihed  =     42079.0145 E_impro  =      1792.6776 E_vdwl   =    -15999.0667 
E_coul   =   1667694.8651 E_long   =  -2177264.9638 Press    =       204.1386 
Volume   =   2473609.1770 
---------------- Step     1750 ----- CPU =     33.9531 (sec) ----------------
TotEng   =   -201510.8826 KinEng   =    171934.8089 Temp     =       299.6844 
PotEng   =   -373445.6915 E_bond   =     20649.0946 E_angle  =     88102.4087 
E_dihed  =     42148.2329 E_impro  =      1748.4695 E_vdwl   =    -16623.5157 
E_coul   =   1667782.8942 E_long   =  -2177253.2757 Press    =        11.3734 
Volume   =   2472963.6477 
---------------- Step     1800 ----- CPU =     34.9122 (sec) ----------------
TotEng   =   -200659.3712 KinEng   =    172351.8699 Temp     =       300.4114 
PotEng   =   -373011.2411 E_bond   =     20725.8823 E_angle  =     88017.3335 
E_dihed  =     41970.7478 E_impro  =      1749.3321 E_vdwl   =    -16334.8176 
E_coul   =   1668109.8596 E_long   =  -2177249.5787 Press    =      -158.4018 
Volume   =   2472564.0967 
---------------- Step     1850 ----- CPU =     35.8711 (sec) ----------------
TotEng   =   -200456.9829 KinEng   =    172539.4223 Temp     =       300.7383 
PotEng   =   -372996.4052 E_bond   =     20582.5564 E_angle  =     88036.9632 
E_dihed  =     42028.9238 E_impro  =      1761.7535 E_vdwl   =    -16890.9892 
E_coul   =   1668742.5193 E_long   =  -2177258.1321 Press    =       -47.8014 
Volume   =   2472510.2814 
---------------- Step     1900 ----- CPU =     36.8280 (sec) ----------------
TotEng   =   -200889.5419 KinEng   =    172182.3862 Temp     =       300.1160 
PotEng   =   -373071.9281 E_bond   =     20388.4247 E_angle  =     88272.0524 
E_dihed  =     42210.2050 E_impro  =      1840.0118 E_vdwl   =    -16947.3155 
E_coul   =   1668388.1932 E_long   =  -2177223.4996 Press    =        75.9600 
Volume   =   2472680.9051 
---------------- Step     1950 ----- CPU =     37.7898 (sec) ----------------
TotEng   =   -201316.0048 KinEng   =    172136.8302 Temp     =       300.0366 
PotEng   =   -373452.8350 E_bond   =     20306.3917 E_angle  =     88148.9720 
E_dihed  =     42027.9419 E_impro  =      1785.1664 E_vdwl   =    -17059.0033 
E_coul   =   1668615.8945 E_long   =  -2177278.1982 Press    =       -36.0180 
Volume   =   2472743.7960 
---------------- Step     2000 ----- CPU =     38.7420 (sec) ----------------
TotEng   =   -201356.2812 KinEng   =    172151.2593 Temp     =       300.0617 
PotEng   =   -373507.5405 E_bond   =     20464.0186 E_angle  =     87994.1460 
E_dihed  =     42156.7244 E_impro  =      1776.2010 E_vdwl   =    -17090.8510 
E_coul   =   1668475.0821 E_long   =  -2177282.8616 Press    =        27.1553 
Volume   =   2472404.0389 
---------------- Step     2050 ----- CPU =     39.6997 (sec) ----------------
TotEng   =   -201071.6790 KinEng   =    172270.4871 Temp     =       300.2695 
PotEng   =   -373342.1661 E_bond   =     20505.3951 E_angle  =     88091.1133 
E_dihed  =     42025.0841 E_impro  =      1843.1834 E_vdwl   =    -17027.9037 
E_coul   =   1668485.3691 E_long   =  -2177264.4073 Press    =        74.9239 
Volume   =   2471772.6448 
---------------- Step     2100 ----- CPU =     40.6736 (sec) ----------------
TotEng   =   -200973.0351 KinEng   =    172237.3779 Temp     =       300.2118 
PotEng   =   -373210.4130 E_bond   =     20625.5621 E_angle  =     87909.7631 
E_dihed  =     42205.1923 E_impro  =      1829.8779 E_vdwl   =    -16704.1936 
E_coul   =   1668188.1041 E_long   =  -2177264.7188 Press    =        14.6663 
Volume   =   2471106.6196 
---------------- Step     2150 ----- CPU =     41.6158 (sec) ----------------
TotEng   =   -201065.8862 KinEng   =    172481.4767 Temp     =       300.6373 
PotEng   =   -373547.3629 E_bond   =     20634.1052 E_angle  =     87769.6296 
E_dihed  =     42063.1806 E_impro  =      1765.1176 E_vdwl   =    -16846.0721 
E_coul   =   1668319.8643 E_long   =  -2177253.1881 Press    =      -126.5475 
Volume   =   2471124.3874 
---------------- Step     2200 ----- CPU =     42.5745 (sec) ----------------
TotEng   =   -201301.3705 KinEng   =    171505.7927 Temp     =       298.9367 
PotEng   =   -372807.1632 E_bond   =     20541.3666 E_angle  =     88103.6379 
E_dihed  =     42202.8812 E_impro  =      1776.9711 E_vdwl   =    -16245.0335 
E_coul   =   1668034.3448 E_long   =  -2177221.3313 Press    =       114.0881 
Volume   =   2471606.2759 
---------------- Step     2250 ----- CPU =     43.5504 (sec) ----------------
TotEng   =   -201539.8514 KinEng   =    172153.5432 Temp     =       300.0657 
PotEng   =   -373693.3945 E_bond   =     20513.1209 E_angle  =     87535.8243 
E_dihed  =     42058.9343 E_impro  =      1792.0003 E_vdwl   =    -16728.2238 
E_coul   =   1668379.4923 E_long   =  -2177244.5428 Press    =       108.1791 
Volume   =   2472464.0901 
---------------- Step     2300 ----- CPU =     44.5103 (sec) ----------------
TotEng   =   -201152.1721 KinEng   =    172034.7993 Temp     =       299.8587 
PotEng   =   -373186.9713 E_bond   =     20611.2624 E_angle  =     87975.6204 
E_dihed  =     42109.2152 E_impro  =      1769.8602 E_vdwl   =    -17057.4190 
E_coul   =   1668632.7355 E_long   =  -2177228.2460 Press    =       -88.6591 
Volume   =   2473207.5591 
---------------- Step     2350 ----- CPU =     45.4667 (sec) ----------------
TotEng   =   -200610.2744 KinEng   =    172777.4598 Temp     =       301.1532 
PotEng   =   -373387.7341 E_bond   =     20563.1770 E_angle  =     87921.5674 
E_dihed  =     42095.9415 E_impro  =      1794.3397 E_vdwl   =    -16853.9695 
E_coul   =   1668353.3197 E_long   =  -2177262.1099 Press    =       -79.8795 
Volume   =   2473711.3085 
---------------- Step     2400 ----- CPU =     46.4279 (sec) ----------------
TotEng   =   -200815.4391 KinEng   =    172612.2815 Temp     =       300.8653 
PotEng   =   -373427.7206 E_bond   =     20428.2603 E_angle  =     88067.7601 
E_dihed  =     42152.9908 E_impro  =      1788.7780 E_vdwl   =    -16548.6815 
E_coul   =   1667988.1280 E_long   =  -2177304.9563 Press    =        80.9388 
Volume   =   2473939.5081 
---------------- Step     2450 ----- CPU =     47.3873 (sec) ----------------
TotEng   =   -201440.8620 KinEng   =    171652.7237 Temp     =       299.1928 
PotEng   =   -373093.5857 E_bond   =     20311.0954 E_angle  =     88166.2279 
E_dihed  =     42154.3964 E_impro  =      1769.0517 E_vdwl   =    -16927.1067 
E_coul   =   1668691.9978 E_long   =  -2177259.2483 Press    =      -139.6937 
Volume   =   2473854.3966 
---------------- Step     2500 ----- CPU =     48.3503 (sec) ----------------
TotEng   =   -201605.6363 KinEng   =    172256.5106 Temp     =       300.2452 
PotEng   =   -373862.1468 E_bond   =     20539.8733 E_angle  =     87586.2785 
E_dihed  =     42155.5407 E_impro  =      1756.4716 E_vdwl   =    -16911.4318 
E_coul   =   1668272.0624 E_long   =  -2177260.9416 Press    =         3.5678 
Volume   =   2473598.0830 
---------------- Step     2550 ----- CPU =     49.3089 (sec) ----------------
TotEng   =   -201250.8474 KinEng   =    171957.1439 Temp     =       299.7234 
PotEng   =   -373207.9913 E_bond   =     20572.4549 E_angle  =     88246.4339 
E_dihed  =     42087.8811 E_impro  =      1733.5963 E_vdwl   =    -16628.3663 
E_coul   =   1668036.3863 E_long   =  -2177256.3775 Press    =         4.4325 
Volume   =   2473322.4141 
---------------- Step     2600 ----- CPU =     50.2638 (sec) ----------------
TotEng   =   -200583.3113 KinEng   =    172560.4905 Temp     =       300.7750 
PotEng   =   -373143.8019 E_bond   =     20609.3021 E_angle  =     88081.7960 
E_dihed  =     42132.3860 E_impro  =      1737.6901 E_vdwl   =    -16526.9739 
E_coul   =   1668049.2110 E_long   =  -2177227.2132 Press    =      -122.4026 
Volume   =   2473234.0574 
---------------- Step     2650 ----- CPU =     51.2244 (sec) ----------------
TotEng   =   -200383.3627 KinEng   =    171907.8864 Temp     =       299.6375 
PotEng   =   -372291.2491 E_bond   =     20533.3410 E_angle  =     88178.3346 
E_dihed  =     42329.7340 E_impro  =      1873.5297 E_vdwl   =    -16444.6423 
E_coul   =   1668526.5170 E_long   =  -2177288.0631 Press    =       150.9303 
Volume   =   2473533.1855 
---------------- Step     2700 ----- CPU =     52.1796 (sec) ----------------
TotEng   =   -200624.9051 KinEng   =    172353.6284 Temp     =       300.4145 
PotEng   =   -372978.5334 E_bond   =     20525.0138 E_angle  =     88299.3374 
E_dihed  =     42158.0301 E_impro  =      1816.0258 E_vdwl   =    -16938.9994 
E_coul   =   1668413.4101 E_long   =  -2177251.3512 Press    =        99.4994 
Volume   =   2474069.3004 
---------------- Step     2750 ----- CPU =     53.1345 (sec) ----------------
TotEng   =   -201207.8180 KinEng   =    171883.2575 Temp     =       299.5946 
PotEng   =   -373091.0756 E_bond   =     20490.5513 E_angle  =     88305.1909 
E_dihed  =     42115.8569 E_impro  =      1756.1873 E_vdwl   =    -17025.3848 
E_coul   =   1668495.1909 E_long   =  -2177228.6681 Press    =        -5.3657 
Volume   =   2474322.1818 
---------------- Step     2800 ----- CPU =     54.0936 (sec) ----------------
TotEng   =   -201610.4305 KinEng   =    171841.0472 Temp     =       299.5210 
PotEng   =   -373451.4777 E_bond   =     20524.8325 E_angle  =     88111.6293 
E_dihed  =     42113.0504 E_impro  =      1778.7664 E_vdwl   =    -17267.1522 
E_coul   =   1668592.5855 E_long   =  -2177305.1897 Press    =       -41.2353 
Volume   =   2474236.7041 
---------------- Step     2850 ----- CPU =     55.0532 (sec) ----------------
TotEng   =   -201388.3732 KinEng   =    171907.1372 Temp     =       299.6362 
PotEng   =   -373295.5104 E_bond   =     20675.8382 E_angle  =     88012.2097 
E_dihed  =     42145.7702 E_impro  =      1839.5661 E_vdwl   =    -17150.9402 
E_coul   =   1668433.6289 E_long   =  -2177251.5833 Press    =      -211.1226 
Volume   =   2473665.0115 
---------------- Step     2900 ----- CPU =     56.0121 (sec) ----------------
TotEng   =   -200967.0790 KinEng   =    172239.6396 Temp     =       300.2158 
PotEng   =   -373206.7186 E_bond   =     20616.0781 E_angle  =     88044.8629 
E_dihed  =     42157.6510 E_impro  =      1757.4256 E_vdwl   =    -16566.7415 
E_coul   =   1668047.1947 E_long   =  -2177263.1894 Press    =        13.2557 
Volume   =   2472560.8927 
---------------- Step     2950 ----- CPU =     56.9697 (sec) ----------------
TotEng   =   -200921.8690 KinEng   =    172526.4375 Temp     =       300.7157 
PotEng   =   -373448.3065 E_bond   =     20681.8883 E_angle  =     88223.9852 
E_dihed  =     42180.6666 E_impro  =      1767.8570 E_vdwl   =    -16866.8574 
E_coul   =   1667828.7320 E_long   =  -2177264.5781 Press    =      -105.4214 
Volume   =   2471780.8870 
---------------- Step     3000 ----- CPU =     57.9285 (sec) ----------------
TotEng   =   -201229.0105 KinEng   =    172226.4482 Temp     =       300.1928 
PotEng   =   -373455.4587 E_bond   =     20541.5607 E_angle  =     88110.9633 
E_dihed  =     41940.9571 E_impro  =      1821.9794 E_vdwl   =    -16356.4847 
E_coul   =   1667752.8471 E_long   =  -2177267.2816 Press    =        12.3722 
Volume   =   2471134.1695 
---------------- Step     3050 ----- CPU =     58.8884 (sec) ----------------
TotEng   =   -201702.7799 KinEng   =    172259.7569 Temp     =       300.2508 
PotEng   =   -373962.5368 E_bond   =     20229.2144 E_angle  =     88073.8494 
E_dihed  =     42239.2653 E_impro  =      1780.3154 E_vdwl   =    -16831.9767 
E_coul   =   1667773.2869 E_long   =  -2177226.4915 Press    =       117.8165 
Volume   =   2470911.5572 
---------------- Step     3100 ----- CPU =     59.8691 (sec) ----------------
TotEng   =   -202065.5257 KinEng   =    171680.6817 Temp     =       299.2415 
PotEng   =   -373746.2074 E_bond   =     20541.1285 E_angle  =     88132.7588 
E_dihed  =     42173.4131 E_impro  =      1808.0724 E_vdwl   =    -17129.3067 
E_coul   =   1667987.5817 E_long   =  -2177259.8553 Press    =      -111.7998 
Volume   =   2471066.2336 
---------------- Step     3150 ----- CPU =     60.8094 (sec) ----------------
TotEng   =   -201971.4730 KinEng   =    172382.8793 Temp     =       300.4654 
PotEng   =   -374354.3524 E_bond   =     20373.9185 E_angle  =     88123.8067 
E_dihed  =     42040.6752 E_impro  =      1809.4458 E_vdwl   =    -17096.0675 
E_coul   =   1667724.0607 E_long   =  -2177330.1917 Press    =         4.8316 
Volume   =   2470745.6643 
---------------- Step     3200 ----- CPU =     61.7680 (sec) ----------------
TotEng   =   -201535.8415 KinEng   =    171954.5302 Temp     =       299.7188 
PotEng   =   -373490.3717 E_bond   =     20726.8945 E_angle  =     88026.9484 
E_dihed  =     42220.8712 E_impro  =      1825.3974 E_vdwl   =    -16592.2942 
E_coul   =   1667605.8130 E_long   =  -2177304.0022 Press    =        32.5277 
Volume   =   2470388.8371 
---------------- Step     3250 ----- CPU =     62.7278 (sec) ----------------
TotEng   =   -201230.4281 KinEng   =    172361.7809 Temp     =       300.4287 
PotEng   =   -373592.2090 E_bond   =     20548.5394 E_angle  =     88009.2107 
E_dihed  =     42298.2550 E_impro  =      1788.9053 E_vdwl   =    -16953.8446 
E_coul   =   1667981.7426 E_long   =  -2177265.0174 Press    =        59.0209 
Volume   =   2470296.3687 
---------------- Step     3300 ----- CPU =     63.6845 (sec) ----------------
TotEng   =   -201177.9780 KinEng   =    172187.6274 Temp     =       300.1251 
PotEng   =   -373365.6054 E_bond   =     20646.3002 E_angle  =     88350.0968 
E_dihed  =     42122.8071 E_impro  =      1784.7651 E_vdwl   =    -16820.1649 
E_coul   =   1667822.1720 E_long   =  -2177271.5818 Press    =      -193.3890 
Volume   =   2470619.2325 
---------------- Step     3350 ----- CPU =     64.6598 (sec) ----------------
TotEng   =   -201425.1666 KinEng   =    172442.3555 Temp     =       300.5691 
PotEng   =   -373867.5221 E_bond   =     20523.2193 E_angle  =     88176.1577 
E_dihed  =     42044.7990 E_impro  =      1744.8890 E_vdwl   =    -16611.4229 
E_coul   =   1667545.6692 E_long   =  -2177290.8333 Press    =      -103.7910 
Volume   =   2470781.6666 
---------------- Step     3400 ----- CPU =     65.6225 (sec) ----------------
TotEng   =   -201843.9120 KinEng   =    172297.2549 Temp     =       300.3162 
PotEng   =   -374141.1669 E_bond   =     20478.0760 E_angle  =     87878.1906 
E_dihed  =     42124.4871 E_impro  =      1800.9457 E_vdwl   =    -16773.3911 
E_coul   =   1667646.9514 E_long   =  -2177296.4268 Press    =        72.9773 
Volume   =   2470856.7873 
---------------- Step     3450 ----- CPU =     66.5794 (sec) ----------------
TotEng   =   -202150.9075 KinEng   =    171208.7422 Temp     =       298.4189 
PotEng   =   -373359.6496 E_bond   =     20633.2034 E_angle  =     88304.0168 
E_dihed  =     42217.6715 E_impro  =      1731.1511 E_vdwl   =    -16515.0482 
E_coul   =   1667557.1852 E_long   =  -2177287.8293 Press    =        75.1525 
Volume   =   2471159.5738 
---------------- Step     3500 ----- CPU =     67.5346 (sec) ----------------
TotEng   =   -201771.1425 KinEng   =    171937.6791 Temp     =       299.6895 
PotEng   =   -373708.8216 E_bond   =     20501.8018 E_angle  =     88217.5463 
E_dihed  =     42227.8850 E_impro  =      1810.7517 E_vdwl   =    -16697.0774 
E_coul   =   1667562.2033 E_long   =  -2177331.9324 Press    =        38.4105 
Volume   =   2471471.2619 
---------------- Step     3550 ----- CPU =     68.4938 (sec) ----------------
TotEng   =   -201025.7851 KinEng   =    172300.2611 Temp     =       300.3214 
PotEng   =   -373326.0462 E_bond   =     20565.4473 E_angle  =     88131.2387 
E_dihed  =     42200.4227 E_impro  =      1793.2023 E_vdwl   =    -16765.0025 
E_coul   =   1668018.8415 E_long   =  -2177270.1962 Press    =       -87.3625 
Volume   =   2471729.2061 
---------------- Step     3600 ----- CPU =     69.4568 (sec) ----------------
TotEng   =   -200573.1742 KinEng   =    172690.7155 Temp     =       301.0020 
PotEng   =   -373263.8897 E_bond   =     20522.5741 E_angle  =     88172.6599 
E_dihed  =     42303.0038 E_impro  =      1763.9297 E_vdwl   =    -16879.8142 
E_coul   =   1668109.0989 E_long   =  -2177255.3420 Press    =        -3.0284 
Volume   =   2471674.6444 
---------------- Step     3650 ----- CPU =     70.4190 (sec) ----------------
TotEng   =   -200921.2408 KinEng   =    172517.8718 Temp     =       300.7007 
PotEng   =   -373439.1125 E_bond   =     20442.1084 E_angle  =     88046.9896 
E_dihed  =     42248.1846 E_impro  =      1753.9929 E_vdwl   =    -16722.2080 
E_coul   =   1668059.7067 E_long   =  -2177267.8867 Press    =        97.0489 
Volume   =   2471701.4041 
---------------- Step     3700 ----- CPU =     71.3784 (sec) ----------------
TotEng   =   -201762.7985 KinEng   =    172357.6203 Temp     =       300.4214 
PotEng   =   -374120.4187 E_bond   =     20745.3533 E_angle  =     87982.1679 
E_dihed  =     42163.6997 E_impro  =      1822.6874 E_vdwl   =    -16712.6877 
E_coul   =   1667157.3108 E_long   =  -2177278.9503 Press    =       -71.9219 
Volume   =   2471727.7650 
---------------- Step     3750 ----- CPU =     72.3575 (sec) ----------------
TotEng   =   -202592.1122 KinEng   =    171443.8331 Temp     =       298.8287 
PotEng   =   -374035.9453 E_bond   =     20421.7390 E_angle  =     88262.2538 
E_dihed  =     42145.2943 E_impro  =      1750.9275 E_vdwl   =    -16707.6326 
E_coul   =   1667334.5121 E_long   =  -2177243.0396 Press    =        22.2707 
Volume   =   2471789.7307 
---------------- Step     3800 ----- CPU =     73.3171 (sec) ----------------
TotEng   =   -202381.8355 KinEng   =    172131.8634 Temp     =       300.0279 
PotEng   =   -374513.6989 E_bond   =     20567.7626 E_angle  =     87764.5767 
E_dihed  =     42084.7466 E_impro  =      1767.7793 E_vdwl   =    -16408.7622 
E_coul   =   1666954.4239 E_long   =  -2177244.2258 Press    =       102.4207 
Volume   =   2471574.1595 
---------------- Step     3850 ----- CPU =     74.2575 (sec) ----------------
TotEng   =   -201607.8230 KinEng   =    172518.9045 Temp     =       300.7025 
PotEng   =   -374126.7274 E_bond   =     20724.2987 E_angle  =     87973.8878 
E_dihed  =     42078.3250 E_impro  =      1754.3970 E_vdwl   =    -16919.7502 
E_coul   =   1667540.2574 E_long   =  -2177278.1431 Press    =       -96.9896 
Volume   =   2471484.0234 
---------------- Step     3900 ----- CPU =     75.2357 (sec) ----------------
TotEng   =   -200938.9311 KinEng   =    172657.5018 Temp     =       300.9441 
PotEng   =   -373596.4329 E_bond   =     20688.5917 E_angle  =     88410.9916 
E_dihed  =     42221.5184 E_impro  =      1796.5901 E_vdwl   =    -16447.0419 
E_coul   =   1667013.1860 E_long   =  -2177280.2689 Press    =       -38.5969 
Volume   =   2471129.2778 
---------------- Step     3950 ----- CPU =     76.1929 (sec) ----------------
TotEng   =   -201052.7191 KinEng   =    172407.8993 Temp     =       300.5091 
PotEng   =   -373460.6184 E_bond   =     20614.6985 E_angle  =     88512.6497 
E_dihed  =     42019.6769 E_impro  =      1787.2368 E_vdwl   =    -16705.6506 
E_coul   =   1667569.2557 E_long   =  -2177258.4854 Press    =       -77.2328 
Volume   =   2470856.1652 
---------------- Step     4000 ----- CPU =     77.1503 (sec) ----------------
TotEng   =   -201676.9668 KinEng   =    172083.9076 Temp     =       299.9443 
PotEng   =   -373760.8744 E_bond   =     20801.6612 E_angle  =     88249.1766 
E_dihed  =     42087.3531 E_impro  =      1808.7810 E_vdwl   =    -16532.4668 
E_coul   =   1667113.1051 E_long   =  -2177288.4847 Press    =       -99.6971 
Volume   =   2470643.3058 
---------------- Step     4050 ----- CPU =     78.1085 (sec) ----------------
TotEng   =   -202363.5928 KinEng   =    171963.9217 Temp     =       299.7352 
PotEng   =   -374327.5144 E_bond   =     20823.5371 E_angle  =     88019.6865 
E_dihed  =     42127.7172 E_impro  =      1776.5405 E_vdwl   =    -16380.6604 
E_coul   =   1666605.2702 E_long   =  -2177299.6055 Press    =       -79.5167 
Volume   =   2470466.4523 
---------------- Step     4100 ----- CPU =     79.0670 (sec) ----------------
TotEng   =   -202548.8559 KinEng   =    172160.2872 Temp     =       300.0775 
PotEng   =   -374709.1431 E_bond   =     20367.0919 E_angle  =     88136.2913 
E_dihed  =     42116.4921 E_impro  =      1794.7487 E_vdwl   =    -16776.4590 
E_coul   =   1666955.4433 E_long   =  -2177302.7515 Press    =        -5.2037 
Volume   =   2470254.5206 
---------------- Step     4150 ----- CPU =     80.0258 (sec) ----------------
TotEng   =   -202035.2735 KinEng   =    172165.1220 Temp     =       300.0859 
PotEng   =   -374200.3954 E_bond   =     20516.4461 E_angle  =     88176.9407 
E_dihed  =     42127.6128 E_impro  =      1775.9662 E_vdwl   =    -16552.3648 
E_coul   =   1667077.3695 E_long   =  -2177322.3660 Press    =       -70.7970 
Volume   =   2470011.5707 
---------------- Step     4200 ----- CPU =     80.9840 (sec) ----------------
TotEng   =   -201461.3489 KinEng   =    172430.6607 Temp     =       300.5487 
PotEng   =   -373892.0096 E_bond   =     20670.6573 E_angle  =     88012.7833 
E_dihed  =     42214.8447 E_impro  =      1848.1019 E_vdwl   =    -17166.7044 
E_coul   =   1667814.0961 E_long   =  -2177285.7886 Press    =       -62.1642 
Volume   =   2469996.9332 
---------------- Step     4250 ----- CPU =     81.9435 (sec) ----------------
TotEng   =   -201139.2003 KinEng   =    172465.7010 Temp     =       300.6098 
PotEng   =   -373604.9012 E_bond   =     20673.3161 E_angle  =     88006.4720 
E_dihed  =     42227.3889 E_impro  =      1814.9828 E_vdwl   =    -16401.8919 
E_coul   =   1667358.4232 E_long   =  -2177283.5922 Press    =         8.3364 
Volume   =   2470036.7028 
---------------- Step     4300 ----- CPU =     82.9061 (sec) ----------------
TotEng   =   -200935.7081 KinEng   =    172152.0426 Temp     =       300.0631 
PotEng   =   -373087.7508 E_bond   =     20568.1167 E_angle  =     88515.1166 
E_dihed  =     42121.4132 E_impro  =      1789.9392 E_vdwl   =    -16642.6123 
E_coul   =   1667852.8745 E_long   =  -2177292.5987 Press    =        97.9784 
Volume   =   2470197.9792 
---------------- Step     4350 ----- CPU =     83.8645 (sec) ----------------
TotEng   =   -201185.4877 KinEng   =    172162.9675 Temp     =       300.0821 
PotEng   =   -373348.4552 E_bond   =     20783.7046 E_angle  =     88633.6468 
E_dihed  =     42271.7816 E_impro  =      1781.4834 E_vdwl   =    -16820.2718 
E_coul   =   1667265.2103 E_long   =  -2177264.0101 Press    =       -73.8935 
Volume   =   2470555.6152 
---------------- Step     4400 ----- CPU =     84.8229 (sec) ----------------
TotEng   =   -201941.0553 KinEng   =    171797.4248 Temp     =       299.4450 
PotEng   =   -373738.4801 E_bond   =     20691.8540 E_angle  =     88556.2777 
E_dihed  =     42112.8193 E_impro  =      1864.7480 E_vdwl   =    -16438.2862 
E_coul   =   1666739.2251 E_long   =  -2177265.1181 Press    =      -131.0384 
Volume   =   2470657.9558 
---------------- Step     4450 ----- CPU =     85.7837 (sec) ----------------
TotEng   =   -202291.6502 KinEng   =    171724.1267 Temp     =       299.3172 
PotEng   =   -374015.7769 E_bond   =     20454.8977 E_angle  =     88444.3003 
E_dihed  =     42211.1594 E_impro  =      1815.3374 E_vdwl   =    -16716.1087 
E_coul   =   1667042.2239 E_long   =  -2177267.5868 Press    =       -26.6484 
Volume   =   2470971.9771 
---------------- Step     4500 ----- CPU =     86.7379 (sec) ----------------
TotEng   =   -201877.2729 KinEng   =    171812.2912 Temp     =       299.4709 
PotEng   =   -373689.5641 E_bond   =     20835.3187 E_angle  =     88570.9627 
E_dihed  =     42245.0661 E_impro  =      1744.0596 E_vdwl   =    -16766.6245 
E_coul   =   1666967.9244 E_long   =  -2177286.2711 Press    =      -243.4457 
Volume   =   2471125.5157 
---------------- Step     4550 ----- CPU =     87.7125 (sec) ----------------
TotEng   =   -201467.3328 KinEng   =    172065.2558 Temp     =       299.9118 
PotEng   =   -373532.5886 E_bond   =     20545.3421 E_angle  =     88604.3319 
E_dihed  =     42193.5602 E_impro  =      1865.0906 E_vdwl   =    -16644.9383 
E_coul   =   1667199.8563 E_long   =  -2177295.8314 Press    =       -55.9820 
Volume   =   2470481.8725 
---------------- Step     4600 ----- CPU =     88.6671 (sec) ----------------
TotEng   =   -201127.0971 KinEng   =    172349.0896 Temp     =       300.4065 
PotEng   =   -373476.1867 E_bond   =     20705.0793 E_angle  =     88500.9513 
E_dihed  =     42058.2417 E_impro  =      1825.3265 E_vdwl   =    -16696.5175 
E_coul   =   1667395.7216 E_long   =  -2177264.9896 Press    =       -23.1920 
Volume   =   2470165.3309 
---------------- Step     4650 ----- CPU =     89.6238 (sec) ----------------
TotEng   =   -201187.6478 KinEng   =    172307.7566 Temp     =       300.3345 
PotEng   =   -373495.4043 E_bond   =     20697.7231 E_angle  =     88543.1263 
E_dihed  =     42054.4517 E_impro  =      1796.4481 E_vdwl   =    -16947.5882 
E_coul   =   1667669.0959 E_long   =  -2177308.6613 Press    =       -32.7580 
Volume   =   2470069.6818 
---------------- Step     4700 ----- CPU =     90.5618 (sec) ----------------
TotEng   =   -201690.7820 KinEng   =    172106.6589 Temp     =       299.9840 
PotEng   =   -373797.4409 E_bond   =     20579.7598 E_angle  =     88444.5596 
E_dihed  =     41988.6933 E_impro  =      1767.3670 E_vdwl   =    -16332.1872 
E_coul   =   1667051.7208 E_long   =  -2177297.3541 Press    =        43.7401 
Volume   =   2469966.4294 
---------------- Step     4750 ----- CPU =     91.5181 (sec) ----------------
TotEng   =   -201991.5740 KinEng   =    171290.9788 Temp     =       298.5622 
PotEng   =   -373282.5528 E_bond   =     20565.9413 E_angle  =     88834.7375 
E_dihed  =     42188.1427 E_impro  =      1834.3721 E_vdwl   =    -16603.8763 
E_coul   =   1667208.8440 E_long   =  -2177310.7141 Press    =        -6.9720 
Volume   =   2469887.6466 
---------------- Step     4800 ----- CPU =     92.4942 (sec) ----------------
TotEng   =   -201995.8047 KinEng   =    171906.4768 Temp     =       299.6351 
PotEng   =   -373902.2815 E_bond   =     20661.5026 E_angle  =     88518.8997 
E_dihed  =     42158.5951 E_impro  =      1819.5656 E_vdwl   =    -16779.8588 
E_coul   =   1666998.5830 E_long   =  -2177279.5687 Press    =       -57.7345 
Volume   =   2470001.4222 
---------------- Step     4850 ----- CPU =     93.4329 (sec) ----------------
TotEng   =   -201796.7530 KinEng   =    172175.6665 Temp     =       300.1043 
PotEng   =   -373972.4195 E_bond   =     20779.2470 E_angle  =     88404.7685 
E_dihed  =     42089.8014 E_impro  =      1779.2280 E_vdwl   =    -16322.6376 
E_coul   =   1666541.8856 E_long   =  -2177244.7124 Press    =       -91.7862 
Volume   =   2470293.0675 
---------------- Step     4900 ----- CPU =     94.4095 (sec) ----------------
TotEng   =   -201639.9463 KinEng   =    172291.3945 Temp     =       300.3060 
PotEng   =   -373931.3407 E_bond   =     20712.8636 E_angle  =     88615.1585 
E_dihed  =     42163.4431 E_impro  =      1820.9140 E_vdwl   =    -16839.9700 
E_coul   =   1666865.7875 E_long   =  -2177269.5374 Press    =      -131.4920 
Volume   =   2470736.4812 
---------------- Step     4950 ----- CPU =     95.3491 (sec) ----------------
TotEng   =   -201445.7712 KinEng   =    172457.5916 Temp     =       300.5957 
PotEng   =   -373903.3628 E_bond   =     20745.0979 E_angle  =     88323.6363 
E_dihed  =     42276.9003 E_impro  =      1776.0561 E_vdwl   =    -16380.7919 
E_coul   =   1666657.0568 E_long   =  -2177301.3183 Press    =        -0.8204 
Volume   =   2470746.4344 
---------------- Step     5000 ----- CPU =     96.3253 (sec) ----------------
TotEng   =   -201463.8587 KinEng   =    172368.1960 Temp     =       300.4398 
PotEng   =   -373832.0547 E_bond   =     20675.7869 E_angle  =     88349.0773 
E_dihed  =     42249.6524 E_impro  =      1706.5200 E_vdwl   =    -16696.8088 
E_coul   =   1667216.1165 E_long   =  -2177332.3990 Press    =       -62.0005 
Volume   =   2471067.2234 
---------------- Step     5050 ----- CPU =     97.2846 (sec) ----------------
TotEng   =   -201648.0277 KinEng   =    171919.9165 Temp     =       299.6585 
PotEng   =   -373567.9441 E_bond   =     20724.6751 E_angle  =     88574.2364 
E_dihed  =     42223.1873 E_impro  =      1795.2751 E_vdwl   =    -16488.9238 
E_coul   =   1666901.1924 E_long   =  -2177297.5866 Press    =        60.8604 
Volume   =   2471507.0044 
---------------- Step     5100 ----- CPU =     98.2236 (sec) ----------------
TotEng   =   -201868.3434 KinEng   =    172217.9369 Temp     =       300.1779 
PotEng   =   -374086.2803 E_bond   =     20726.6904 E_angle  =     88399.6597 
E_dihed  =     42167.9769 E_impro  =      1755.7253 E_vdwl   =    -16453.3332 
E_coul   =   1666590.9743 E_long   =  -2177273.9737 Press    =        -0.6330 
Volume   =   2471690.0931 
---------------- Step     5150 ----- CPU =     99.1790 (sec) ----------------
TotEng   =   -202009.5624 KinEng   =    172127.5844 Temp     =       300.0205 
PotEng   =   -374137.1468 E_bond   =     20565.6438 E_angle  =     88538.2737 
E_dihed  =     42167.6775 E_impro  =      1786.0235 E_vdwl   =    -16967.5685 
E_coul   =   1667063.9941 E_long   =  -2177291.1909 Press    =      -191.3587 
Volume   =   2471507.1917 
---------------- Step     5200 ----- CPU =    100.1333 (sec) ----------------
TotEng   =   -201990.8770 KinEng   =    171814.9539 Temp     =       299.4755 
PotEng   =   -373805.8309 E_bond   =     20595.5820 E_angle  =     88709.3832 
E_dihed  =     42337.2825 E_impro  =      1872.3458 E_vdwl   =    -16926.5459 
E_coul   =   1666874.6283 E_long   =  -2177268.5069 Press    =       -95.8572 
Volume   =   2471159.0013 
---------------- Step     5250 ----- CPU =    101.0933 (sec) ----------------
TotEng   =   -201876.3594 KinEng   =    172436.9039 Temp     =       300.5596 
PotEng   =   -374313.2633 E_bond   =     20638.6387 E_angle  =     87995.9534 
E_dihed  =     42219.6240 E_impro  =      1792.3784 E_vdwl   =    -16699.4195 
E_coul   =   1667026.5390 E_long   =  -2177286.9772 Press    =       -54.9160 
Volume   =   2470726.2326 
---------------- Step     5300 ----- CPU =    102.0518 (sec) ----------------
TotEng   =   -201736.1653 KinEng   =    171929.2848 Temp     =       299.6748 
PotEng   =   -373665.4501 E_bond   =     20554.0316 E_angle  =     88763.1088 
E_dihed  =     42428.2621 E_impro  =      1894.8713 E_vdwl   =    -16079.2121 
E_coul   =   1666082.8415 E_long   =  -2177309.3533 Press    =       131.2189 
Volume   =   2470295.3327 
---------------- Step     5350 ----- CPU =    103.0148 (sec) ----------------
TotEng   =   -201849.9958 KinEng   =    172411.5243 Temp     =       300.5154 
PotEng   =   -374261.5202 E_bond   =     20754.8325 E_angle  =     88403.6074 
E_dihed  =     42261.8731 E_impro  =      1747.5455 E_vdwl   =    -16983.3223 
E_coul   =   1666881.7553 E_long   =  -2177327.8117 Press    =      -157.8641 
Volume   =   2470239.8955 
---------------- Step     5400 ----- CPU =    103.9709 (sec) ----------------
TotEng   =   -202279.0071 KinEng   =    171968.6020 Temp     =       299.7433 
PotEng   =   -374247.6091 E_bond   =     20798.2845 E_angle  =     88609.4510 
E_dihed  =     42137.8738 E_impro  =      1742.5176 E_vdwl   =    -16412.5370 
E_coul   =   1666198.4215 E_long   =  -2177321.6204 Press    =      -105.6271 
Volume   =   2469742.9968 
---------------- Step     5450 ----- CPU =    104.9316 (sec) ----------------
TotEng   =   -202346.1151 KinEng   =    171944.3346 Temp     =       299.7011 
PotEng   =   -374290.4497 E_bond   =     20490.8716 E_angle  =     88586.0611 
E_dihed  =     42273.9365 E_impro  =      1795.8218 E_vdwl   =    -16682.7191 
E_coul   =   1666545.6266 E_long   =  -2177300.0483 Press    =       179.6264 
Volume   =   2469085.7197 
---------------- Step     5500 ----- CPU =    105.8915 (sec) ----------------
TotEng   =   -202139.1671 KinEng   =    172574.4055 Temp     =       300.7993 
PotEng   =   -374713.5726 E_bond   =     20790.6787 E_angle  =     88269.6444 
E_dihed  =     42111.5951 E_impro  =      1774.4182 E_vdwl   =    -16550.8888 
E_coul   =   1666197.4102 E_long   =  -2177306.4304 Press    =       -85.8764 
Volume   =   2468642.3954 
---------------- Step     5550 ----- CPU =    106.8490 (sec) ----------------
TotEng   =   -202292.0991 KinEng   =    172102.2974 Temp     =       299.9764 
PotEng   =   -374394.3965 E_bond   =     20563.6923 E_angle  =     88591.9163 
E_dihed  =     41925.7828 E_impro  =      1759.8811 E_vdwl   =    -16648.1889 
E_coul   =   1666710.2545 E_long   =  -2177297.7346 Press    =        50.5482 
Volume   =   2468438.7188 
---------------- Step     5600 ----- CPU =    107.8100 (sec) ----------------
TotEng   =   -202301.7155 KinEng   =    171677.4184 Temp     =       299.2358 
PotEng   =   -373979.1338 E_bond   =     20589.9529 E_angle  =     88785.2299 
E_dihed  =     42149.5312 E_impro  =      1797.6854 E_vdwl   =    -16444.9308 
E_coul   =   1666466.7981 E_long   =  -2177323.4005 Press    =       119.3213 
Volume   =   2468583.5913 
---------------- Step     5650 ----- CPU =    108.7641 (sec) ----------------
TotEng   =   -202083.6412 KinEng   =    172090.7783 Temp     =       299.9563 
PotEng   =   -374174.4195 E_bond   =     20600.9021 E_angle  =     88880.5811 
E_dihed  =     42135.7235 E_impro  =      1808.4789 E_vdwl   =    -16889.1870 
E_coul   =   1666567.2949 E_long   =  -2177278.2130 Press    =      -245.1906 
Volume   =   2468827.2011 
---------------- Step     5700 ----- CPU =    109.7220 (sec) ----------------
TotEng   =   -201795.4325 KinEng   =    172157.3962 Temp     =       300.0724 
PotEng   =   -373952.8287 E_bond   =     20652.6800 E_angle  =     88885.2813 
E_dihed  =     42215.3318 E_impro  =      1760.6282 E_vdwl   =    -16426.4956 
E_coul   =   1666287.9334 E_long   =  -2177328.1878 Press    =       -17.5109 
Volume   =   2468595.0652 
---------------- Step     5750 ----- CPU =    110.6765 (sec) ----------------
TotEng   =   -201738.9567 KinEng   =    172200.0318 Temp     =       300.1467 
PotEng   =   -373938.9885 E_bond   =     20751.7053 E_angle  =     88509.6309 
E_dihed  =     42156.8487 E_impro  =      1753.7925 E_vdwl   =    -16300.1317 
E_coul   =   1666479.2717 E_long   =  -2177290.1058 Press    =       177.2878 
Volume   =   2468557.4480 
---------------- Step     5800 ----- CPU =    111.6368 (sec) ----------------
TotEng   =   -202007.6127 KinEng   =    171905.1937 Temp     =       299.6328 
PotEng   =   -373912.8064 E_bond   =     20759.1309 E_angle  =     88421.3475 
E_dihed  =     42156.2258 E_impro  =      1793.8467 E_vdwl   =    -16291.6086 
E_coul   =   1666520.1179 E_long   =  -2177271.8666 Press    =        34.3111 
Volume   =   2468888.5720 
---------------- Step     5850 ----- CPU =    112.5923 (sec) ----------------
TotEng   =   -202393.3579 KinEng   =    172040.5116 Temp     =       299.8687 
PotEng   =   -374433.8695 E_bond   =     20641.9432 E_angle  =     88629.7487 
E_dihed  =     42259.0431 E_impro  =      1784.0680 E_vdwl   =    -16871.8680 
E_coul   =   1666383.9475 E_long   =  -2177260.7521 Press    =       -52.5508 
Volume   =   2469022.1520 
---------------- Step     5900 ----- CPU =    113.5496 (sec) ----------------
TotEng   =   -202509.0061 KinEng   =    171774.4139 Temp     =       299.4049 
PotEng   =   -374283.4200 E_bond   =     20494.8433 E_angle  =     88591.4391 
E_dihed  =     42097.3184 E_impro  =      1787.2718 E_vdwl   =    -16515.9516 
E_coul   =   1666516.2487 E_long   =  -2177254.5897 Press    =       -49.3512 
Volume   =   2469271.6885 
---------------- Step     5950 ----- CPU =    114.5140 (sec) ----------------
TotEng   =   -202255.3675 KinEng   =    172282.9164 Temp     =       300.2912 
PotEng   =   -374538.2839 E_bond   =     20616.9325 E_angle  =     88747.8409 
E_dihed  =     42232.1219 E_impro  =      1831.1524 E_vdwl   =    -16682.3068 
E_coul   =   1665965.1414 E_long   =  -2177249.1663 Press    =      -112.5048 
Volume   =   2469186.5728 
---------------- Step     6000 ----- CPU =    115.4743 (sec) ----------------
TotEng   =   -202174.9222 KinEng   =    172112.7686 Temp     =       299.9946 
PotEng   =   -374287.6908 E_bond   =     20782.6192 E_angle  =     88568.0627 
E_dihed  =     42289.9889 E_impro  =      1793.1090 E_vdwl   =    -16179.6716 
E_coul   =   1665773.2305 E_long   =  -2177315.0294 Press    =      -114.5575 
Volume   =   2468975.3002 
---------------- Step     6050 ----- CPU =    116.4401 (sec) ----------------
TotEng   =   -202347.5920 KinEng   =    172339.0569 Temp     =       300.3891 
PotEng   =   -374686.6489 E_bond   =     20567.2220 E_angle  =     88560.6329 
E_dihed  =     42297.3393 E_impro  =      1760.2115 E_vdwl   =    -16042.2266 
E_coul   =   1665440.5631 E_long   =  -2177270.3911 Press    =        20.1160 
Volume   =   2468814.1037 
---------------- Step     6100 ----- CPU =    117.4000 (sec) ----------------
TotEng   =   -202480.2624 KinEng   =    172055.5829 Temp     =       299.8950 
PotEng   =   -374535.8453 E_bond   =     20611.2782 E_angle  =     88781.0740 
E_dihed  =     42273.4513 E_impro  =      1810.1094 E_vdwl   =    -16249.0790 
E_coul   =   1665506.7817 E_long   =  -2177269.4609 Press    =       -34.2542 
Volume   =   2468611.6186 
---------------- Step     6150 ----- CPU =    118.3617 (sec) ----------------
TotEng   =   -202532.3478 KinEng   =    172360.9416 Temp     =       300.4272 
PotEng   =   -374893.2894 E_bond   =     20420.6509 E_angle  =     88535.0961 
E_dihed  =     42202.6132 E_impro  =      1845.6749 E_vdwl   =    -16692.4836 
E_coul   =   1666064.3690 E_long   =  -2177269.2099 Press    =        -6.9318 
Volume   =   2468378.8049 
---------------- Step     6200 ----- CPU =    119.3240 (sec) ----------------
TotEng   =   -202535.9975 KinEng   =    172100.7919 Temp     =       299.9738 
PotEng   =   -374636.7894 E_bond   =     20690.2302 E_angle  =     88620.4620 
E_dihed  =     42137.0711 E_impro  =      1754.1408 E_vdwl   =    -16308.2468 
E_coul   =   1665720.5347 E_long   =  -2177250.9814 Press    =       -11.6737 
Volume   =   2467605.4912 
---------------- Step     6250 ----- CPU =    120.2877 (sec) ----------------
TotEng   =   -202349.8319 KinEng   =    171962.7680 Temp     =       299.7332 
PotEng   =   -374312.5999 E_bond   =     21032.9400 E_angle  =     88529.1945 
E_dihed  =     42203.7724 E_impro  =      1759.8333 E_vdwl   =    -16242.8790 
E_coul   =   1665700.1477 E_long   =  -2177295.6089 Press    =       -12.8707 
Volume   =   2466901.2907 
---------------- Step     6300 ----- CPU =    121.2520 (sec) ----------------
TotEng   =   -202251.9618 KinEng   =    172250.2690 Temp     =       300.2343 
PotEng   =   -374502.2308 E_bond   =     20612.4068 E_angle  =     88476.6991 
E_dihed  =     42146.2067 E_impro  =      1811.5587 E_vdwl   =    -16240.6269 
E_coul   =   1665999.5611 E_long   =  -2177308.0363 Press    =        -3.1520 
Volume   =   2466440.7736 
---------------- Step     6350 ----- CPU =    122.2145 (sec) ----------------
TotEng   =   -202183.7758 KinEng   =    171995.5994 Temp     =       299.7904 
PotEng   =   -374179.3752 E_bond   =     20441.5464 E_angle  =     88979.5483 
E_dihed  =     42297.8402 E_impro  =      1803.8635 E_vdwl   =    -16926.2142 
E_coul   =   1666506.4179 E_long   =  -2177282.3772 Press    =       120.4756 
Volume   =   2466351.3299 
---------------- Step     6400 ----- CPU =    123.1735 (sec) ----------------
TotEng   =   -202337.0887 KinEng   =    171922.9938 Temp     =       299.6639 
PotEng   =   -374260.0825 E_bond   =     20529.8405 E_angle  =     88523.9755 
E_dihed  =     42210.0243 E_impro  =      1794.0847 E_vdwl   =    -15839.5006 
E_coul   =   1665779.1100 E_long   =  -2177257.6169 Press    =       133.3266 
Volume   =   2466597.5394 
---------------- Step     6450 ----- CPU =    124.1358 (sec) ----------------
TotEng   =   -202653.9624 KinEng   =    172256.2158 Temp     =       300.2447 
PotEng   =   -374910.1782 E_bond   =     20737.7248 E_angle  =     88347.1729 
E_dihed  =     42221.0332 E_impro  =      1834.2611 E_vdwl   =    -16614.9328 
E_coul   =   1665849.1725 E_long   =  -2177284.6099 Press    =      -165.0905 
Volume   =   2467518.6178 
---------------- Step     6500 ----- CPU =    125.0921 (sec) ----------------
TotEng   =   -202691.0428 KinEng   =    172033.9488 Temp     =       299.8572 
PotEng   =   -374724.9916 E_bond   =     20791.0830 E_angle  =     88602.1612 
E_dihed  =     42097.7627 E_impro  =      1799.1629 E_vdwl   =    -16267.4856 
E_coul   =   1665549.7471 E_long   =  -2177297.4231 Press    =        25.9344 
Volume   =   2468521.3827 
---------------- Step     6550 ----- CPU =    126.0340 (sec) ----------------
TotEng   =   -202569.2334 KinEng   =    172431.4798 Temp     =       300.5502 
PotEng   =   -375000.7132 E_bond   =     20835.5540 E_angle  =     87986.7359 
E_dihed  =     42086.4261 E_impro  =      1787.6992 E_vdwl   =    -16344.2140 
E_coul   =   1665959.4900 E_long   =  -2177312.4046 Press    =        18.1908 
Volume   =   2469462.8105 
---------------- Step     6600 ----- CPU =    127.0099 (sec) ----------------
TotEng   =   -202251.5732 KinEng   =    172223.1661 Temp     =       300.1871 
PotEng   =   -374474.7393 E_bond   =     20718.1870 E_angle  =     88460.4586 
E_dihed  =     42143.7607 E_impro  =      1795.8924 E_vdwl   =    -16561.0659 
E_coul   =   1666271.5096 E_long   =  -2177303.4818 Press    =      -123.9540 
Volume   =   2470270.7081 
---------------- Step     6650 ----- CPU =    127.9644 (sec) ----------------
TotEng   =   -201930.9958 KinEng   =    172135.4013 Temp     =       300.0341 
PotEng   =   -374066.3971 E_bond   =     20906.8436 E_angle  =     88660.5041 
E_dihed  =     42164.5752 E_impro  =      1762.3312 E_vdwl   =    -16812.8492 
E_coul   =   1666518.2414 E_long   =  -2177266.0434 Press    =      -113.5824 
Volume   =   2471023.9380 
---------------- Step     6700 ----- CPU =    128.9040 (sec) ----------------
TotEng   =   -201731.0168 KinEng   =    172309.4159 Temp     =       300.3374 
PotEng   =   -374040.4327 E_bond   =     20943.6958 E_angle  =     88733.8982 
E_dihed  =     42051.2883 E_impro  =      1834.0960 E_vdwl   =    -16576.0880 
E_coul   =   1666295.7378 E_long   =  -2177323.0607 Press    =      -181.3218 
Volume   =   2471557.6908 
---------------- Step     6750 ----- CPU =    129.8785 (sec) ----------------
TotEng   =   -201922.7599 KinEng   =    172241.5853 Temp     =       300.2192 
PotEng   =   -374164.3452 E_bond   =     20850.0830 E_angle  =     88533.4451 
E_dihed  =     41932.2229 E_impro  =      1821.9527 E_vdwl   =    -16745.0307 
E_coul   =   1666753.0150 E_long   =  -2177310.0330 Press    =      -157.8404 
Volume   =   2471763.3475 
---------------- Step     6800 ----- CPU =    130.8315 (sec) ----------------
TotEng   =   -202251.0559 KinEng   =    172005.2143 Temp     =       299.8072 
PotEng   =   -374256.2702 E_bond   =     20682.6346 E_angle  =     88595.5017 
E_dihed  =     42075.2276 E_impro  =      1805.0687 E_vdwl   =    -16432.8792 
E_coul   =   1666315.0024 E_long   =  -2177296.8260 Press    =        64.2586 
Volume   =   2471368.7016 
---------------- Step     6850 ----- CPU =    131.7882 (sec) ----------------
TotEng   =   -202507.7588 KinEng   =    172248.4751 Temp     =       300.2312 
PotEng   =   -374756.2340 E_bond   =     20552.6885 E_angle  =     88639.1048 
E_dihed  =     42012.1019 E_impro  =      1812.0262 E_vdwl   =    -16824.6626 
E_coul   =   1666392.8976 E_long   =  -2177340.3904 Press    =      -115.4676 
Volume   =   2471022.7568 
---------------- Step     6900 ----- CPU =    132.7264 (sec) ----------------
TotEng   =   -202176.6256 KinEng   =    172256.9878 Temp     =       300.2460 
PotEng   =   -374433.6134 E_bond   =     20775.4058 E_angle  =     88736.8675 
E_dihed  =     42047.9149 E_impro  =      1855.1579 E_vdwl   =    -16276.2199 
E_coul   =   1665703.5421 E_long   =  -2177276.2817 Press    =        30.7378 
Volume   =   2470844.4380 
---------------- Step     6950 ----- CPU =    133.6820 (sec) ----------------
TotEng   =   -201892.4722 KinEng   =    172170.4102 Temp     =       300.0951 
PotEng   =   -374062.8824 E_bond   =     20752.7454 E_angle  =     89061.0017 
E_dihed  =     41954.2750 E_impro  =      1819.0783 E_vdwl   =    -16419.1322 
E_coul   =   1666050.8267 E_long   =  -2177281.6773 Press    =      -109.6101 
Volume   =   2471180.0246 
---------------- Step     7000 ----- CPU =    134.6348 (sec) ----------------
TotEng   =   -201960.5042 KinEng   =    172083.1740 Temp     =       299.9430 
PotEng   =   -374043.6782 E_bond   =     20967.9728 E_angle  =     88825.1445 
E_dihed  =     42233.7644 E_impro  =      1821.9926 E_vdwl   =    -16347.1364 
E_coul   =   1665721.7389 E_long   =  -2177267.1549 Press    =       -52.7117 
Volume   =   2471630.3558 
---------------- Step     7050 ----- CPU =    135.6092 (sec) ----------------
TotEng   =   -202192.4617 KinEng   =    172017.7914 Temp     =       299.8291 
PotEng   =   -374210.2531 E_bond   =     20689.9106 E_angle  =     88981.6118 
E_dihed  =     42005.5672 E_impro  =      1786.2644 E_vdwl   =    -16250.7547 
E_coul   =   1665821.2500 E_long   =  -2177244.1024 Press    =        21.7511 
Volume   =   2471682.9559 
---------------- Step     7100 ----- CPU =    136.5700 (sec) ----------------
TotEng   =   -202237.8644 KinEng   =    172402.6139 Temp     =       300.4998 
PotEng   =   -374640.4783 E_bond   =     20664.7340 E_angle  =     88866.4503 
E_dihed  =     42079.7597 E_impro  =      1843.3637 E_vdwl   =    -15986.1366 
E_coul   =   1665203.2635 E_long   =  -2177311.9129 Press    =      -146.6125 
Volume   =   2471579.2032 
---------------- Step     7150 ----- CPU =    137.5238 (sec) ----------------
TotEng   =   -202611.0994 KinEng   =    172006.6854 Temp     =       299.8097 
PotEng   =   -374617.7849 E_bond   =     20959.7202 E_angle  =     88626.7387 
E_dihed  =     42047.7519 E_impro  =      1787.7042 E_vdwl   =    -16048.0711 
E_coul   =   1665301.8699 E_long   =  -2177293.4986 Press    =        29.1228 
Volume   =   2471434.3466 
---------------- Step     7200 ----- CPU =    138.4816 (sec) ----------------
TotEng   =   -202944.3525 KinEng   =    171456.5039 Temp     =       298.8508 
PotEng   =   -374400.8564 E_bond   =     20862.4328 E_angle  =     88952.5579 
E_dihed  =     42121.3678 E_impro  =      1759.0145 E_vdwl   =    -16345.8352 
E_coul   =   1665564.5595 E_long   =  -2177314.9538 Press    =       -17.9588 
Volume   =   2471197.0234 
---------------- Step     7250 ----- CPU =    139.4391 (sec) ----------------
TotEng   =   -202896.7848 KinEng   =    171820.6168 Temp     =       299.4854 
PotEng   =   -374717.4017 E_bond   =     20720.6167 E_angle  =     88771.5913 
E_dihed  =     42019.1272 E_impro  =      1792.9732 E_vdwl   =    -15911.0441 
E_coul   =   1665182.0405 E_long   =  -2177292.7063 Press    =        -7.9588 
Volume   =   2470660.2873 
---------------- Step     7300 ----- CPU =    140.3932 (sec) ----------------
TotEng   =   -202566.4939 KinEng   =    172118.6490 Temp     =       300.0049 
PotEng   =   -374685.1428 E_bond   =     20425.6917 E_angle  =     88890.1646 
E_dihed  =     42076.7571 E_impro  =      1765.5368 E_vdwl   =    -16075.4558 
E_coul   =   1665525.7052 E_long   =  -2177293.5425 Press    =       -23.5130 
Volume   =   2470543.6909 
---------------- Step     7350 ----- CPU =    141.3500 (sec) ----------------
TotEng   =   -202125.2090 KinEng   =    172245.4426 Temp     =       300.2259 
PotEng   =   -374370.6515 E_bond   =     20561.5528 E_angle  =     88507.6704 
E_dihed  =     42249.3348 E_impro  =      1805.9321 E_vdwl   =    -16294.3523 
E_coul   =   1666076.1770 E_long   =  -2177276.9663 Press    =       -32.5017 
Volume   =   2470795.7260 
---------------- Step     7400 ----- CPU =    142.3100 (sec) ----------------
TotEng   =   -201627.3653 KinEng   =    172402.0901 Temp     =       300.4989 
PotEng   =   -374029.4554 E_bond   =     20776.3897 E_angle  =     89065.8627 
E_dihed  =     42051.7537 E_impro  =      1796.1708 E_vdwl   =    -16422.2620 
E_coul   =   1666001.8075 E_long   =  -2177299.1777 Press    =      -157.9250 
Volume   =   2471027.1939 
---------------- Step     7450 ----- CPU =    143.2641 (sec) ----------------
TotEng   =   -201427.9378 KinEng   =    172411.9956 Temp     =       300.5162 
PotEng   =   -373839.9334 E_bond   =     20744.9863 E_angle  =     88851.8009 
E_dihed  =     42160.2622 E_impro  =      1819.6792 E_vdwl   =    -16295.8090 
E_coul   =   1666206.6985 E_long   =  -2177327.5514 Press    =       -47.2909 
Volume   =   2471035.0908 
---------------- Step     7500 ----- CPU =    144.2200 (sec) ----------------
TotEng   =   -201965.0345 KinEng   =    172054.2061 Temp     =       299.8926 
PotEng   =   -374019.2407 E_bond   =     20861.7612 E_angle  =     88728.1919 
E_dihed  =     42210.8790 E_impro  =      1790.9513 E_vdwl   =    -16317.3154 
E_coul   =   1666033.1232 E_long   =  -2177326.8319 Press    =      -196.1581 
Volume   =   2470682.8857 
---------------- Step     7550 ----- CPU =    145.1741 (sec) ----------------
TotEng   =   -202717.1601 KinEng   =    171827.0814 Temp     =       299.4967 
PotEng   =   -374544.2415 E_bond   =     20644.7255 E_angle  =     88634.1228 
E_dihed  =     42146.8063 E_impro  =      1805.3083 E_vdwl   =    -16254.9142 
E_coul   =   1665782.4886 E_long   =  -2177302.7789 Press    =       168.5037 
Volume   =   2469731.0536 
---------------- Step     7600 ----- CPU =    146.1299 (sec) ----------------
TotEng   =   -202901.4171 KinEng   =    172154.9635 Temp     =       300.0682 
PotEng   =   -375056.3806 E_bond   =     20766.3464 E_angle  =     88476.8105 
E_dihed  =     42192.9107 E_impro  =      1818.2427 E_vdwl   =    -16344.0482 
E_coul   =   1665319.4306 E_long   =  -2177286.0733 Press    =       -94.4974 
Volume   =   2469117.2827 
---------------- Step     7650 ----- CPU =    147.0838 (sec) ----------------
TotEng   =   -202688.5604 KinEng   =    171675.6604 Temp     =       299.2327 
PotEng   =   -374364.2208 E_bond   =     20775.4000 E_angle  =     88960.3013 
E_dihed  =     42282.3233 E_impro  =      1799.9571 E_vdwl   =    -16917.9170 
E_coul   =   1666024.2472 E_long   =  -2177288.5327 Press    =      -103.1673 
Volume   =   2468646.3984 
---------------- Step     7700 ----- CPU =    148.0415 (sec) ----------------
TotEng   =   -202220.6067 KinEng   =    172242.4381 Temp     =       300.2206 
PotEng   =   -374463.0449 E_bond   =     20811.0326 E_angle  =     88709.4901 
E_dihed  =     42105.4650 E_impro  =      1820.6634 E_vdwl   =    -16593.5735 
E_coul   =   1666001.4188 E_long   =  -2177317.5412 Press    =       -62.4693 
Volume   =   2467862.3358 
---------------- Step     7750 ----- CPU =    148.9988 (sec) ----------------
TotEng   =   -201880.7438 KinEng   =    172512.5712 Temp     =       300.6915 
PotEng   =   -374393.3149 E_bond   =     20802.5003 E_angle  =     89019.1063 
E_dihed  =     42205.2627 E_impro  =      1791.4737 E_vdwl   =    -16528.2859 
E_coul   =   1665643.2959 E_long   =  -2177326.6679 Press    =        95.5366 
Volume   =   2467433.5065 
---------------- Step     7800 ----- CPU =    149.9360 (sec) ----------------
TotEng   =   -202029.1252 KinEng   =    172702.0453 Temp     =       301.0218 
PotEng   =   -374731.1705 E_bond   =     20713.6537 E_angle  =     88956.9133 
E_dihed  =     42107.6278 E_impro  =      1793.7940 E_vdwl   =    -16658.4766 
E_coul   =   1665645.4806 E_long   =  -2177290.1633 Press    =       246.3188 
Volume   =   2467001.7176 
---------------- Step     7850 ----- CPU =    150.9010 (sec) ----------------
TotEng   =   -202594.6631 KinEng   =    171930.3292 Temp     =       299.6766 
PotEng   =   -374524.9923 E_bond   =     20692.6341 E_angle  =     88970.2462 
E_dihed  =     42035.0216 E_impro  =      1792.0694 E_vdwl   =    -16186.3168 
E_coul   =   1665434.8776 E_long   =  -2177263.5245 Press    =       -78.5938 
Volume   =   2467363.3212 
---------------- Step     7900 ----- CPU =    151.8589 (sec) ----------------
TotEng   =   -202942.4742 KinEng   =    171616.9895 Temp     =       299.1305 
PotEng   =   -374559.4637 E_bond   =     20708.2761 E_angle  =     88654.4470 
E_dihed  =     42052.4978 E_impro  =      1751.6685 E_vdwl   =    -16022.9240 
E_coul   =   1665573.0588 E_long   =  -2177276.4879 Press    =       -52.5249 
Volume   =   2467775.9254 
---------------- Step     7950 ----- CPU =    152.8163 (sec) ----------------
TotEng   =   -202746.5565 KinEng   =    171720.8104 Temp     =       299.3114 
PotEng   =   -374467.3669 E_bond   =     20599.1831 E_angle  =     88870.6400 
E_dihed  =     42057.5240 E_impro  =      1794.2384 E_vdwl   =    -16253.1278 
E_coul   =   1665783.5553 E_long   =  -2177319.3798 Press    =        75.8123 
Volume   =   2468150.9314 
---------------- Step     8000 ----- CPU =    153.7731 (sec) ----------------
TotEng   =   -202099.0849 KinEng   =    172112.3385 Temp     =       299.9939 
PotEng   =   -374211.4234 E_bond   =     20670.5219 E_angle  =     89059.8442 
E_dihed  =     42145.0364 E_impro  =      1796.2873 E_vdwl   =    -16287.4123 
E_coul   =   1665707.8104 E_long   =  -2177303.5113 Press    =       -37.6396 
Volume   =   2468494.5244 
---------------- Step     8050 ----- CPU =    154.7481 (sec) ----------------
TotEng   =   -201823.5947 KinEng   =    172316.2657 Temp     =       300.3493 
PotEng   =   -374139.8603 E_bond   =     20834.0198 E_angle  =     89033.0273 
E_dihed  =     42103.6330 E_impro  =      1774.6882 E_vdwl   =    -16595.5969 
E_coul   =   1665975.9051 E_long   =  -2177265.5368 Press    =       -57.1224 
Volume   =   2468638.9785 
---------------- Step     8100 ----- CPU =    155.7044 (sec) ----------------
TotEng   =   -202356.2618 KinEng   =    172461.2722 Temp     =       300.6021 
PotEng   =   -374817.5339 E_bond   =     20762.5721 E_angle  =     88523.3851 
E_dihed  =     42092.0004 E_impro  =      1781.1512 E_vdwl   =    -16632.0485 
E_coul   =   1665945.2161 E_long   =  -2177289.8103 Press    =      -176.7264 
Volume   =   2469099.4089 
---------------- Step     8150 ----- CPU =    156.6636 (sec) ----------------
TotEng   =   -203130.5215 KinEng   =    171729.9011 Temp     =       299.3273 
PotEng   =   -374860.4226 E_bond   =     20631.4312 E_angle  =     89079.9277 
E_dihed  =     42156.7312 E_impro  =      1766.0848 E_vdwl   =    -16403.0144 
E_coul   =   1665198.3714 E_long   =  -2177289.9545 Press    =        85.5970 
Volume   =   2469038.7714 
---------------- Step     8200 ----- CPU =    157.6167 (sec) ----------------
TotEng   =   -203300.8398 KinEng   =    171453.3128 Temp     =       298.8452 
PotEng   =   -374754.1526 E_bond   =     20788.2721 E_angle  =     88606.8677 
E_dihed  =     42194.5023 E_impro  =      1845.9629 E_vdwl   =    -16693.7864 
E_coul   =   1665767.3868 E_long   =  -2177263.3581 Press    =       -53.4932 
Volume   =   2468796.3143 
---------------- Step     8250 ----- CPU =    158.5725 (sec) ----------------
TotEng   =   -202626.1878 KinEng   =    172280.2571 Temp     =       300.2866 
PotEng   =   -374906.4449 E_bond   =     20697.5539 E_angle  =     88633.9331 
E_dihed  =     42036.2507 E_impro  =      1842.2211 E_vdwl   =    -16279.6468 
E_coul   =   1665468.6210 E_long   =  -2177305.3780 Press    =        -7.1268 
Volume   =   2468748.6395 
---------------- Step     8300 ----- CPU =    159.5285 (sec) ----------------
TotEng   =   -201992.1107 KinEng   =    171943.2876 Temp     =       299.6992 
PotEng   =   -373935.3983 E_bond   =     20710.1964 E_angle  =     89069.3792 
E_dihed  =     42305.8952 E_impro  =      1778.8057 E_vdwl   =    -16505.2400 
E_coul   =   1665987.7161 E_long   =  -2177282.1510 Press    =       -48.6664 
Volume   =   2468870.2492 
---------------- Step     8350 ----- CPU =    160.4891 (sec) ----------------
TotEng   =   -201667.5719 KinEng   =    172748.8035 Temp     =       301.1033 
PotEng   =   -374416.3754 E_bond   =     20536.8851 E_angle  =     88763.1414 
E_dihed  =     42213.9545 E_impro  =      1784.8408 E_vdwl   =    -16233.8452 
E_coul   =   1665782.7966 E_long   =  -2177264.1486 Press    =       124.9689 
Volume   =   2468534.7999 
---------------- Step     8400 ----- CPU =    161.4286 (sec) ----------------
TotEng   =   -201731.8477 KinEng   =    172369.0856 Temp     =       300.4414 
PotEng   =   -374100.9333 E_bond   =     20721.1731 E_angle  =     88650.4094 
E_dihed  =     42201.5901 E_impro  =      1802.6398 E_vdwl   =    -16514.3500 
E_coul   =   1666321.3379 E_long   =  -2177283.7336 Press    =        31.1155 
Volume   =   2468251.7221 
---------------- Step     8450 ----- CPU =    162.3962 (sec) ----------------
TotEng   =   -202013.7185 KinEng   =    171959.1428 Temp     =       299.7269 
PotEng   =   -373972.8613 E_bond   =     20863.4288 E_angle  =     88549.9794 
E_dihed  =     42244.3033 E_impro  =      1859.5531 E_vdwl   =    -16473.8785 
E_coul   =   1666334.2951 E_long   =  -2177350.5423 Press    =        33.7617 
Volume   =   2468076.2413 
---------------- Step     8500 ----- CPU =    163.3560 (sec) ----------------
TotEng   =   -202155.2169 KinEng   =    172275.2074 Temp     =       300.2778 
PotEng   =   -374430.4243 E_bond   =     20713.1938 E_angle  =     89021.5451 
E_dihed  =     42188.9774 E_impro  =      1808.7509 E_vdwl   =    -16379.4721 
E_coul   =   1665514.4893 E_long   =  -2177297.9087 Press    =      -131.2411 
Volume   =   2467838.0480 
---------------- Step     8550 ----- CPU =    164.3334 (sec) ----------------
TotEng   =   -202224.5070 KinEng   =    171561.2487 Temp     =       299.0333 
PotEng   =   -373785.7557 E_bond   =     20871.8687 E_angle  =     89082.5866 
E_dihed  =     42381.7076 E_impro  =      1787.8197 E_vdwl   =    -16238.8036 
E_coul   =   1665665.6681 E_long   =  -2177336.6028 Press    =       -75.3959 
Volume   =   2467594.2695 
---------------- Step     8600 ----- CPU =    165.2886 (sec) ----------------
TotEng   =   -202311.8079 KinEng   =    171678.5642 Temp     =       299.2378 
PotEng   =   -373990.3722 E_bond   =     20886.1034 E_angle  =     88860.3063 
E_dihed  =     42197.9971 E_impro  =      1782.5146 E_vdwl   =    -16412.0964 
E_coul   =   1666008.1057 E_long   =  -2177313.3029 Press    =       -37.2028 
Volume   =   2467206.6132 
---------------- Step     8650 ----- CPU =    166.2312 (sec) ----------------
TotEng   =   -202400.2665 KinEng   =    171932.4211 Temp     =       299.6803 
PotEng   =   -374332.6876 E_bond   =     20612.3222 E_angle  =     88889.6006 
E_dihed  =     42282.0928 E_impro  =      1843.8659 E_vdwl   =    -16467.7562 
E_coul   =   1665785.9989 E_long   =  -2177278.8118 Press    =       -70.8878 
Volume   =   2467195.2964 
---------------- Step     8700 ----- CPU =    167.1861 (sec) ----------------
TotEng   =   -202306.7647 KinEng   =    171498.5302 Temp     =       298.9240 
PotEng   =   -373805.2949 E_bond   =     20772.5844 E_angle  =     89155.7442 
E_dihed  =     42160.7567 E_impro  =      1850.7173 E_vdwl   =    -16382.8501 
E_coul   =   1665925.8574 E_long   =  -2177288.1048 Press    =       -51.8857 
Volume   =   2467230.8569 
---------------- Step     8750 ----- CPU =    168.1475 (sec) ----------------
TotEng   =   -202143.0569 KinEng   =    171871.4596 Temp     =       299.5740 
PotEng   =   -374014.5165 E_bond   =     20753.1724 E_angle  =     89186.7807 
E_dihed  =     42273.3324 E_impro  =      1804.9160 E_vdwl   =    -16725.1205 
E_coul   =   1665985.4080 E_long   =  -2177293.0055 Press    =       -34.1362 
Volume   =   2466919.2531 
---------------- Step     8800 ----- CPU =    169.1225 (sec) ----------------
TotEng   =   -202059.0312 KinEng   =    172603.8077 Temp     =       300.8505 
PotEng   =   -374662.8389 E_bond   =     20880.1714 E_angle  =     88479.9321 
E_dihed  =     42304.8683 E_impro  =      1790.5628 E_vdwl   =    -16543.0818 
E_coul   =   1665741.1462 E_long   =  -2177316.4379 Press    =      -198.6124 
Volume   =   2466515.7224 
---------------- Step     8850 ----- CPU =    170.0647 (sec) ----------------
TotEng   =   -202247.0595 KinEng   =    171968.2646 Temp     =       299.7428 
PotEng   =   -374215.3241 E_bond   =     20803.2803 E_angle  =     89107.3731 
E_dihed  =     42403.7358 E_impro  =      1811.6477 E_vdwl   =    -16677.3450 
E_coul   =   1665637.8855 E_long   =  -2177301.9013 Press    =        29.7650 
Volume   =   2466216.3758 
---------------- Step     8900 ----- CPU =    171.0202 (sec) ----------------
TotEng   =   -202330.8542 KinEng   =    171702.7407 Temp     =       299.2800 
PotEng   =   -374033.5949 E_bond   =     20645.2586 E_angle  =     88953.4158 
E_dihed  =     42424.0481 E_impro  =      1859.4681 E_vdwl   =    -16900.8467 
E_coul   =   1666281.3661 E_long   =  -2177296.3050 Press    =        90.5508 
Volume   =   2466220.4661 
---------------- Step     8950 ----- CPU =    171.9998 (sec) ----------------
TotEng   =   -202350.6998 KinEng   =    171903.3276 Temp     =       299.6296 
PotEng   =   -374254.0275 E_bond   =     20815.6048 E_angle  =     88881.1649 
E_dihed  =     42338.2358 E_impro  =      1827.5330 E_vdwl   =    -16233.3587 
E_coul   =   1665456.5499 E_long   =  -2177339.7572 Press    =       -50.9517 
Volume   =   2466424.5229 
---------------- Step     9000 ----- CPU =    172.9620 (sec) ----------------
TotEng   =   -202354.6555 KinEng   =    172137.1456 Temp     =       300.0371 
PotEng   =   -374491.8011 E_bond   =     20665.5743 E_angle  =     88854.2478 
E_dihed  =     42263.3307 E_impro  =      1789.5003 E_vdwl   =    -16215.4505 
E_coul   =   1665467.8042 E_long   =  -2177316.8078 Press    =        40.0818 
Volume   =   2466347.5919 
---------------- Step     9050 ----- CPU =    173.9248 (sec) ----------------
TotEng   =   -202356.1062 KinEng   =    172504.3118 Temp     =       300.6771 
PotEng   =   -374860.4180 E_bond   =     20589.5639 E_angle  =     88781.1377 
E_dihed  =     42161.6009 E_impro  =      1803.6774 E_vdwl   =    -16871.2336 
E_coul   =   1665971.8289 E_long   =  -2177296.9932 Press    =      -127.3089 
Volume   =   2466112.4818 
---------------- Step     9100 ----- CPU =    174.8890 (sec) ----------------
TotEng   =   -202474.2457 KinEng   =    171561.7746 Temp     =       299.0342 
PotEng   =   -374036.0202 E_bond   =     20802.9499 E_angle  =     89146.4094 
E_dihed  =     42287.0416 E_impro  =      1806.8378 E_vdwl   =    -16265.9682 
E_coul   =   1665528.2555 E_long   =  -2177341.5462 Press    =        75.6923 
Volume   =   2465633.1235 
---------------- Step     9150 ----- CPU =    175.8262 (sec) ----------------
TotEng   =   -202652.5444 KinEng   =    172062.5408 Temp     =       299.9071 
PotEng   =   -374715.0853 E_bond   =     20753.0768 E_angle  =     88966.8509 
E_dihed  =     42197.6920 E_impro  =      1761.0023 E_vdwl   =    -16897.6619 
E_coul   =   1665786.4012 E_long   =  -2177282.4466 Press    =        -1.8937 
Volume   =   2465594.4399 
---------------- Step     9200 ----- CPU =    176.7978 (sec) ----------------
TotEng   =   -202793.7486 KinEng   =    172074.8991 Temp     =       299.9286 
PotEng   =   -374868.6477 E_bond   =     20681.9719 E_angle  =     89191.5231 
E_dihed  =     42039.1659 E_impro  =      1799.9921 E_vdwl   =    -16071.2569 
E_coul   =   1664842.2027 E_long   =  -2177352.2465 Press    =       -40.6934 
Volume   =   2465848.3426 
---------------- Step     9250 ----- CPU =    177.7517 (sec) ----------------
TotEng   =   -202992.9866 KinEng   =    172126.2588 Temp     =       300.0181 
PotEng   =   -375119.2454 E_bond   =     20801.0516 E_angle  =     88963.8607 
E_dihed  =     42270.2603 E_impro  =      1792.6951 E_vdwl   =    -16281.9881 
E_coul   =   1664642.9487 E_long   =  -2177308.0736 Press    =      -106.5712 
Volume   =   2466248.2871 
---------------- Step     9300 ----- CPU =    178.7089 (sec) ----------------
TotEng   =   -203193.8939 KinEng   =    172021.2913 Temp     =       299.8352 
PotEng   =   -375215.1852 E_bond   =     20791.6087 E_angle  =     88375.2298 
E_dihed  =     42139.4014 E_impro  =      1794.0061 E_vdwl   =    -16383.4027 
E_coul   =   1665368.2204 E_long   =  -2177300.2490 Press    =       -24.1714 
Volume   =   2466518.6046 
---------------- Step     9350 ----- CPU =    179.6729 (sec) ----------------
TotEng   =   -203132.0395 KinEng   =    172113.4971 Temp     =       299.9959 
PotEng   =   -375245.5365 E_bond   =     20624.0151 E_angle  =     88645.5094 
E_dihed  =     42046.3575 E_impro  =      1758.6514 E_vdwl   =    -16059.0884 
E_coul   =   1665080.6711 E_long   =  -2177341.6526 Press    =      -167.5044 
Volume   =   2466737.2032 
---------------- Step     9400 ----- CPU =    180.6296 (sec) ----------------
TotEng   =   -202761.5605 KinEng   =    172235.4000 Temp     =       300.2084 
PotEng   =   -374996.9605 E_bond   =     20801.2420 E_angle  =     88699.0015 
E_dihed  =     42221.7100 E_impro  =      1815.0890 E_vdwl   =    -15831.1843 
E_coul   =   1664615.1104 E_long   =  -2177317.9290 Press    =        90.2146 
Volume   =   2466911.4895 
---------------- Step     9450 ----- CPU =    181.5822 (sec) ----------------
TotEng   =   -202253.7929 KinEng   =    172180.2669 Temp     =       300.1123 
PotEng   =   -374434.0598 E_bond   =     20975.8821 E_angle  =     88713.1997 
E_dihed  =     42138.1867 E_impro  =      1805.6116 E_vdwl   =    -16190.6547 
E_coul   =   1665445.4730 E_long   =  -2177321.7583 Press    =        -9.1803 
Volume   =   2467496.2400 
---------------- Step     9500 ----- CPU =    182.5412 (sec) ----------------
TotEng   =   -202259.1419 KinEng   =    172639.0771 Temp     =       300.9120 
PotEng   =   -374898.2191 E_bond   =     20650.6845 E_angle  =     89035.7158 
E_dihed  =     42203.0415 E_impro  =      1800.6275 E_vdwl   =    -16777.7054 
E_coul   =   1665521.3523 E_long   =  -2177331.9352 Press    =      -131.4599 
Volume   =   2467876.2508 
---------------- Step     9550 ----- CPU =    183.5024 (sec) ----------------
TotEng   =   -202764.7707 KinEng   =    172034.9030 Temp     =       299.8589 
PotEng   =   -374799.6737 E_bond   =     20484.4955 E_angle  =     88950.8943 
E_dihed  =     42247.6606 E_impro  =      1844.4511 E_vdwl   =    -16300.5605 
E_coul   =   1665306.7827 E_long   =  -2177333.3975 Press    =        -3.4116 
Volume   =   2467858.9710 
---------------- Step     9600 ----- CPU =    184.4573 (sec) ----------------
TotEng   =   -203002.1305 KinEng   =    172130.6540 Temp     =       300.0258 
PotEng   =   -375132.7845 E_bond   =     20745.2007 E_angle  =     88971.3451 
E_dihed  =     42103.1784 E_impro  =      1815.1213 E_vdwl   =    -16403.5046 
E_coul   =   1664885.3347 E_long   =  -2177249.4600 Press    =      -152.1588 
Volume   =   2467995.2195 
---------------- Step     9650 ----- CPU =    185.4086 (sec) ----------------
TotEng   =   -202944.7274 KinEng   =    171764.1916 Temp     =       299.3871 
PotEng   =   -374708.9190 E_bond   =     20775.6953 E_angle  =     89084.9453 
E_dihed  =     42071.8125 E_impro  =      1822.9163 E_vdwl   =    -16841.6506 
E_coul   =   1665698.2803 E_long   =  -2177320.9181 Press    =      -196.8640 
Volume   =   2467821.9218 
---------------- Step     9700 ----- CPU =    186.3621 (sec) ----------------
TotEng   =   -202617.1406 KinEng   =    172066.7139 Temp     =       299.9144 
PotEng   =   -374683.8545 E_bond   =     20721.4340 E_angle  =     89117.6793 
E_dihed  =     42257.2376 E_impro  =      1772.3515 E_vdwl   =    -16374.8371 
E_coul   =   1665114.6360 E_long   =  -2177292.3558 Press    =       -59.0944 
Volume   =   2466968.7464 
---------------- Step     9750 ----- CPU =    187.3137 (sec) ----------------
TotEng   =   -202363.9379 KinEng   =    172457.6018 Temp     =       300.5957 
PotEng   =   -374821.5397 E_bond   =     20769.3984 E_angle  =     89181.2089 
E_dihed  =     42273.2574 E_impro  =      1775.0798 E_vdwl   =    -16093.2035 
E_coul   =   1664582.2573 E_long   =  -2177309.5381 Press    =       106.8872 
Volume   =   2465696.6177 
---------------- Step     9800 ----- CPU =    188.2698 (sec) ----------------
TotEng   =   -202598.2957 KinEng   =    172579.8728 Temp     =       300.8088 
PotEng   =   -375178.1685 E_bond   =     20638.0583 E_angle  =     88659.4541 
E_dihed  =     42278.2430 E_impro  =      1800.4850 E_vdwl   =    -16237.6883 
E_coul   =   1664963.6037 E_long   =  -2177280.3243 Press    =        73.0762 
Volume   =   2464360.1475 
---------------- Step     9850 ----- CPU =    189.2232 (sec) ----------------
TotEng   =   -203094.5803 KinEng   =    172133.5716 Temp     =       300.0309 
PotEng   =   -375228.1519 E_bond   =     20773.6224 E_angle  =     88780.5550 
E_dihed  =     42291.1248 E_impro  =      1813.6626 E_vdwl   =    -16103.0104 
E_coul   =   1664521.5122 E_long   =  -2177305.6185 Press    =        59.7310 
Volume   =   2463465.4335 
---------------- Step     9900 ----- CPU =    190.1827 (sec) ----------------
TotEng   =   -203493.3556 KinEng   =    171868.4876 Temp     =       299.5688 
PotEng   =   -375361.8432 E_bond   =     20803.2289 E_angle  =     88933.8243 
E_dihed  =     42192.6310 E_impro  =      1824.3458 E_vdwl   =    -16461.1890 
E_coul   =   1664623.2453 E_long   =  -2177277.9294 Press    =      -195.1285 
Volume   =   2463241.0457 
---------------- Step     9950 ----- CPU =    191.1379 (sec) ----------------
TotEng   =   -203377.9856 KinEng   =    171972.9689 Temp     =       299.7510 
PotEng   =   -375350.9545 E_bond   =     20719.3575 E_angle  =     89031.3789 
E_dihed  =     42322.1550 E_impro  =      1789.7345 E_vdwl   =    -16424.8619 
E_coul   =   1664476.9249 E_long   =  -2177265.6434 Press    =        -9.3249 
Volume   =   2462740.6291 
---------------- Step    10000 ----- CPU =    192.1124 (sec) ----------------
TotEng   =   -202770.7688 KinEng   =    172225.2966 Temp     =       300.1908 
PotEng   =   -374996.0654 E_bond   =     20652.0498 E_angle  =     89247.3125 
E_dihed  =     42174.6860 E_impro  =      1804.0364 E_vdwl   =    -15798.0126 
E_coul   =   1664198.7024 E_long   =  -2177274.8400 Press    =       178.4351 
Volume   =   2462585.7911 
Loop time of 192.112 on 32 procs for 10000 steps with 256000 atoms

Performance: 8.995 ns/day, 2.668 hours/ns, 52.053 timesteps/s
99.1% CPU use with 32 MPI tasks x 1 OpenMP threads

MPI task timing breakdown:
Section |  min time  |  avg time  |  max time  |%varavg| %total
---------------------------------------------------------------
Pair    | 110.95     | 112.68     | 116.13     |  12.3 | 58.65
Bond    | 6.5515     | 6.8754     | 7.354      |   9.9 |  3.58
Kspace  | 21.783     | 25.306     | 27.193     |  27.0 | 13.17
Neigh   | 16.168     | 16.193     | 16.221     |   0.3 |  8.43
Comm    | 9.2553     | 9.4542     | 10.507     |  11.5 |  4.92
Output  | 0.011034   | 0.011294   | 0.015202   |   0.7 |  0.01
Modify  | 18.119     | 20.241     | 20.568     |  16.0 | 10.54
Other   |            | 1.355      |            |       |  0.71

Nlocal:           8000 ave        8117 max        7909 min
Histogram: 1 5 6 4 3 4 5 1 2 1
Nghost:        22745.4 ave       22869 max       22605 min
Histogram: 1 1 5 4 4 4 2 7 2 2
Neighs:    3.00993e+06 ave 3.10329e+06 max 2.94701e+06 min
Histogram: 2 3 7 6 4 3 5 0 1 1

Total # of neighbors = 96317842
Ave neighs/atom = 376.24157
Ave special neighs/atom = 7.431875
Neighbor list builds = 1205
Dangerous builds = 0
Total wall time: 0:03:12
Intel(R) VTune(TM) Profiler 2022.2.0 collection completed successfully. Use the "aps --report /home/ubuntu/lammps/bench/aps_result_20220703" command to generate textual and HTML reports for the profiling session.
