LAMMPS (7 Jan 2022)
  using 1 OpenMP thread(s) per MPI task
Reading data file ...
  orthogonal box = (-27.5 -38.5 -36.3646) to (27.5 38.5 36.3615)
  1 by 2 by 2 MPI processor grid
  reading atoms ...
  32000 atoms
  reading velocities ...
  32000 velocities
  scanning bonds ...
  4 = max bonds/atom
  scanning angles ...
  8 = max angles/atom
  scanning dihedrals ...
  18 = max dihedrals/atom
  scanning impropers ...
  2 = max impropers/atom
  reading bonds ...
  27723 bonds
  reading angles ...
  40467 angles
  reading dihedrals ...
  56829 dihedrals
  reading impropers ...
  1034 impropers
Finding 1-2 1-3 1-4 neighbors ...
  special bond factors lj:    0        0        0       
  special bond factors coul:  0        0        0       
     4 = max # of 1-2 neighbors
    12 = max # of 1-3 neighbors
    24 = max # of 1-4 neighbors
    26 = max # of special neighbors
  special bonds CPU = 0.005 seconds
  read_data CPU = 0.432 seconds
Finding SHAKE clusters ...
    1617 = # of size 2 clusters
    3633 = # of size 3 clusters
     747 = # of size 4 clusters
    4233 = # of frozen angles
  find clusters CPU = 0.002 seconds
Ewald initialization ...
  using 12-bit tables for long-range coulomb (../kspace.cpp:340)
  G vector (1/distance) = 0.24317651
  estimated absolute RMS force accuracy = 0.038892646
  estimated relative force accuracy = 0.00011712405
  KSpace vectors: actual max1d max3d = 5154 15 14895
                  kxmax kymax kzmax  = 11 15 14
----------------------------------------------------------
Using INTEL Package without Coprocessor.
Compiler: Intel Classic C++ 20.21.5 / Intel(R) C++ g++ 9.3 mode
SIMD compiler directives: Enabled
Precision: mixed
----------------------------------------------------------
  generated 2278 of 2278 mixed pair_coeff terms from arithmetic mixing rule
Neighbor list info ...
  update every 1 steps, delay 5 steps, check yes
  max neighbors/atom: 2000, page size: 100000
  master list distance cutoff = 12
  ghost atom cutoff = 12
  binsize = 6, bins = 10 13 13
  1 neighbor lists, perpetual/occasional/extra = 1 0 0
  (1) pair lj/charmm/coul/long/intel, perpetual
      attributes: half, newton on, intel
      pair build: half/bin/newton/intel
      stencil: half/bin/3d
      bin: intel
Setting up Verlet run ...
  Unit style    : real
  Current step  : 0
  Time step     : 2
Per MPI rank memory allocation (min/avg/max) = 153.8 | 154.3 | 155.4 Mbytes
---------------- Step        0 ----- CPU =      0.0000 (sec) ----------------
TotEng   =    -25359.1382 KinEng   =     21444.8313 Temp     =       299.0397 
PotEng   =    -46803.9695 E_bond   =      2537.9949 E_angle  =     10921.3721 
E_dihed  =      5211.7865 E_impro  =       213.5135 E_vdwl   =     -2307.8639 
E_coul   =    200896.8670 E_long   =   -264277.6397 Press    =      -144.5718 
Volume   =    307995.0335 
---------------- Step       50 ----- CPU =     17.0291 (sec) ----------------
TotEng   =    -25332.7016 KinEng   =     21500.7646 Temp     =       299.8196 
PotEng   =    -46833.4662 E_bond   =      2471.7893 E_angle  =     10836.5273 
E_dihed  =      5239.7063 E_impro  =       227.1148 E_vdwl   =     -1993.4977 
E_coul   =    200668.6068 E_long   =   -264283.7131 Press    =       241.5868 
Volume   =    308033.0099 
---------------- Step      100 ----- CPU =     34.0889 (sec) ----------------
TotEng   =    -25294.9841 KinEng   =     21590.4467 Temp     =       301.0702 
PotEng   =    -46885.4308 E_bond   =      2568.1732 E_angle  =     10781.9310 
E_dihed  =      5198.5969 E_impro  =       216.7448 E_vdwl   =     -1899.5751 
E_coul   =    200527.5396 E_long   =   -264278.8412 Press    =        12.4667 
Volume   =    308139.1419 
---------------- Step      150 ----- CPU =     51.1116 (sec) ----------------
TotEng   =    -25263.9410 KinEng   =     21517.8390 Temp     =       300.0577 
PotEng   =    -46781.7801 E_bond   =      2556.1411 E_angle  =     10853.2881 
E_dihed  =      5264.7762 E_impro  =       203.1876 E_vdwl   =     -2074.0522 
E_coul   =    200687.9672 E_long   =   -264273.0880 Press    =       245.5249 
Volume   =    308525.4220 
---------------- Step      200 ----- CPU =     68.1931 (sec) ----------------
TotEng   =    -25091.6958 KinEng   =     21523.1175 Temp     =       300.1313 
PotEng   =    -46614.8134 E_bond   =      2488.5522 E_angle  =     11071.1525 
E_dihed  =      5222.0602 E_impro  =       232.9487 E_vdwl   =     -2119.3048 
E_coul   =    200768.8628 E_long   =   -264279.0850 Press    =        83.3182 
Volume   =    309006.7361 
---------------- Step      250 ----- CPU =     85.3215 (sec) ----------------
TotEng   =    -24956.1055 KinEng   =     21606.5501 Temp     =       301.2948 
PotEng   =    -46562.6556 E_bond   =      2541.2282 E_angle  =     11112.6552 
E_dihed  =      5239.4591 E_impro  =       212.7395 E_vdwl   =     -2208.8833 
E_coul   =    200833.5806 E_long   =   -264293.4348 Press    =      -206.0915 
Volume   =    309413.6059 
---------------- Step      300 ----- CPU =    102.4451 (sec) ----------------
TotEng   =    -24997.6492 KinEng   =     21611.3775 Temp     =       301.3621 
PotEng   =    -46609.0267 E_bond   =      2569.0989 E_angle  =     10940.4710 
E_dihed  =      5222.8902 E_impro  =       220.6927 E_vdwl   =     -2258.5898 
E_coul   =    200958.9996 E_long   =   -264262.5893 Press    =      -445.4464 
Volume   =    309705.9181 
---------------- Step      350 ----- CPU =    119.5967 (sec) ----------------
TotEng   =    -25202.9898 KinEng   =     21456.9264 Temp     =       299.2083 
PotEng   =    -46659.9163 E_bond   =      2584.7706 E_angle  =     10956.9401 
E_dihed  =      5258.0210 E_impro  =       212.7485 E_vdwl   =     -2152.7784 
E_coul   =    200748.0611 E_long   =   -264267.6791 Press    =      -436.8456 
Volume   =    309852.5431 
---------------- Step      400 ----- CPU =    136.6950 (sec) ----------------
TotEng   =    -25344.7020 KinEng   =     21375.0842 Temp     =       298.0671 
PotEng   =    -46719.7862 E_bond   =      2540.4179 E_angle  =     10943.7979 
E_dihed  =      5212.9966 E_impro  =       215.5371 E_vdwl   =     -2188.4630 
E_coul   =    200836.6413 E_long   =   -264280.7140 Press    =        87.1267 
Volume   =    309861.7101 
---------------- Step      450 ----- CPU =    153.8101 (sec) ----------------
TotEng   =    -25279.2969 KinEng   =     21405.9371 Temp     =       298.4973 
PotEng   =    -46685.2340 E_bond   =      2512.7726 E_angle  =     10869.7138 
E_dihed  =      5260.4927 E_impro  =       222.0076 E_vdwl   =     -2095.8829 
E_coul   =    200824.4149 E_long   =   -264278.7528 Press    =       263.3589 
Volume   =    309865.9832 
---------------- Step      500 ----- CPU =    170.8630 (sec) ----------------
TotEng   =    -24967.0635 KinEng   =     21575.9923 Temp     =       300.8687 
PotEng   =    -46543.0558 E_bond   =      2597.4880 E_angle  =     10969.2382 
E_dihed  =      5252.0944 E_impro  =       213.7761 E_vdwl   =     -2138.2619 
E_coul   =    200834.7227 E_long   =   -264272.1133 Press    =      -287.4516 
Volume   =    309907.3800 
---------------- Step      550 ----- CPU =    187.9217 (sec) ----------------
TotEng   =    -24789.6470 KinEng   =     21727.6108 Temp     =       302.9829 
PotEng   =    -46517.2578 E_bond   =      2557.5412 E_angle  =     10915.1861 
E_dihed  =      5217.9319 E_impro  =       227.8526 E_vdwl   =     -1980.3237 
E_coul   =    200821.4010 E_long   =   -264276.8468 Press    =       421.3589 
Volume   =    310049.7842 
---------------- Step      600 ----- CPU =    204.9429 (sec) ----------------
TotEng   =    -24921.4912 KinEng   =     21662.7664 Temp     =       302.0787 
PotEng   =    -46584.2576 E_bond   =      2565.7478 E_angle  =     11001.7273 
E_dihed  =      5223.9781 E_impro  =       221.6152 E_vdwl   =     -2318.0170 
E_coul   =    200992.2385 E_long   =   -264271.5474 Press    =      -200.0424 
Volume   =    310414.9138 
Loop time of 204.943 on 4 procs for 600 steps with 32000 atoms

Performance: 0.506 ns/day, 47.440 hours/ns, 2.928 timesteps/s
76.8% CPU use with 4 MPI tasks x 1 OpenMP threads

MPI task timing breakdown:
Section |  min time  |  avg time  |  max time  |%varavg| %total
---------------------------------------------------------------
Pair    | 6.4847     | 8.1271     | 12.78      |  94.3 |  3.97
Bond    | 0.37751    | 0.52554    | 0.9542     |  34.1 |  0.26
Kspace  | 107.26     | 127.97     | 187.82     | 305.5 | 62.44
Neigh   | 1.5939     | 1.6298     | 1.6577     |   2.2 |  0.80
Comm    | 0.62109    | 65.592     | 88.08      | 463.2 | 32.01
Output  | 0.00062092 | 0.00068399 | 0.00086385 |   0.0 |  0.00
Modify  | 0.94353    | 1.0038     | 1.1226     |   7.0 |  0.49
Other   |            | 0.09464    |            |       |  0.05

Nlocal:           8000 ave        8120 max        7919 min
Histogram: 1 0 1 0 1 0 0 0 0 1
Nghost:        22609.8 ave       22664 max       22510 min
Histogram: 1 0 0 0 0 0 0 1 1 1
Neighs:    2.98535e+06 ave 3.05862e+06 max 2.93646e+06 min
Histogram: 1 1 0 0 1 0 0 0 0 1

Total # of neighbors = 11941395
Ave neighs/atom = 373.16859
Ave special neighs/atom = 7.431875
Neighbor list builds = 65
Dangerous builds = 0
Total wall time: 0:03:25
Intel(R) VTune(TM) Profiler 2022.2.0 collection completed successfully. Use the "aps --report /home/ubuntu/lammps/bench/aps_result_20220530" command to generate textual and HTML reports for the profiling session.
