LAMMPS (7 Jan 2022)
  using 1 OpenMP thread(s) per MPI task
Reading data file ...
  orthogonal box = (-27.5 -38.5 -36.3646) to (27.5 38.5 36.3615)
  4 by 4 by 4 MPI processor grid
  reading atoms ...
  32000 atoms
  reading velocities ...
  32000 velocities
  scanning bonds ...
  4 = max bonds/atom
  scanning angles ...
  8 = max angles/atom
  scanning dihedrals ...
  18 = max dihedrals/atom
  scanning impropers ...
  2 = max impropers/atom
  reading bonds ...
  27723 bonds
  reading angles ...
  40467 angles
  reading dihedrals ...
  56829 dihedrals
  reading impropers ...
  1034 impropers
Finding 1-2 1-3 1-4 neighbors ...
  special bond factors lj:    0        0        0       
  special bond factors coul:  0        0        0       
     4 = max # of 1-2 neighbors
    12 = max # of 1-3 neighbors
    24 = max # of 1-4 neighbors
    26 = max # of special neighbors
  special bonds CPU = 0.356 seconds
  read_data CPU = 1.338 seconds
Replicating atoms ...
  orthogonal box = (-27.5 -38.5 -36.3646) to (82.5 115.5 109.0876)
  4 by 4 by 4 MPI processor grid
  256000 atoms
  221784 bonds
  323736 angles
  454632 dihedrals
  8272 impropers
Finding 1-2 1-3 1-4 neighbors ...
  special bond factors lj:    0        0        0       
  special bond factors coul:  0        0        0       
     4 = max # of 1-2 neighbors
    12 = max # of 1-3 neighbors
    24 = max # of 1-4 neighbors
    26 = max # of special neighbors
  special bonds CPU = 0.125 seconds
  replicate CPU = 0.427 seconds
Finding SHAKE clusters ...
   12936 = # of size 2 clusters
   29064 = # of size 3 clusters
    5976 = # of size 4 clusters
   33864 = # of frozen angles
  find clusters CPU = 0.169 seconds
PPPM initialization ...
  using 12-bit tables for long-range coulomb (../kspace.cpp:340)
  G vector (1/distance) = 0.25045586
  grid = 45 60 60
  stencil order = 7
  estimated absolute RMS force accuracy = 0.032785255
  estimated relative force accuracy = 9.8731821e-05
  using single precision MKL FFT
  3d grid and FFT values/proc = 9196 2880
----------------------------------------------------------
Using INTEL Package without Coprocessor.
Compiler: Intel Classic C++ 20.21.5 / Intel(R) C++ g++ 9.3 mode
SIMD compiler directives: Enabled
Precision: single
----------------------------------------------------------
  generated 2278 of 2278 mixed pair_coeff terms from arithmetic mixing rule
Neighbor list info ...
  update every 1 steps, delay 5 steps, check yes
  max neighbors/atom: 2000, page size: 100000
  master list distance cutoff = 12
  ghost atom cutoff = 12
  binsize = 6, bins = 19 26 25
  1 neighbor lists, perpetual/occasional/extra = 1 0 0
  (1) pair lj/charmm/coul/long/intel, perpetual
      attributes: half, newton on, intel
      pair build: half/bin/newton/intel
      stencil: half/bin/3d
      bin: intel
Setting up Verlet run ...
  Unit style    : real
  Current step  : 0
  Time step     : 2
Per MPI rank memory allocation (min/avg/max) = 70.7 | 71.33 | 71.98 Mbytes
---------------- Step        0 ----- CPU =      0.0000 (sec) ----------------
TotEng   =   -202864.2693 KinEng   =    171558.6503 Temp     =       299.0288 
PotEng   =   -374422.9195 E_bond   =     20303.9370 E_angle  =     87370.9628 
E_dihed  =     41694.2900 E_impro  =      1708.1116 E_vdwl   =    -18462.9020 
E_coul   =   1670250.3639 E_long   =  -2177287.6827 Press    =      -148.4158 
Volume   =   2463960.2680 
---------------- Step       50 ----- CPU =      2.2884 (sec) ----------------
TotEng   =   -202649.0414 KinEng   =    172008.0662 Temp     =       299.8121 
PotEng   =   -374657.1076 E_bond   =     19774.0733 E_angle  =     86693.3760 
E_dihed  =     41917.3345 E_impro  =      1816.9753 E_vdwl   =    -15944.9553 
E_coul   =   1668428.8490 E_long   =  -2177342.7604 Press    =       239.0055 
Volume   =   2464255.7514 
---------------- Step      100 ----- CPU =      3.5983 (sec) ----------------
TotEng   =   -202322.4819 KinEng   =    172719.9268 Temp     =       301.0529 
PotEng   =   -375042.4087 E_bond   =     20544.0614 E_angle  =     86257.9999 
E_dihed  =     41590.1174 E_impro  =      1734.0836 E_vdwl   =    -15193.5103 
E_coul   =   1667326.0266 E_long   =  -2177301.1872 Press    =        13.7689 
Volume   =   2465083.9284 
Loop time of 3.59839 on 64 procs for 100 steps with 256000 atoms

Performance: 4.802 ns/day, 4.998 hours/ns, 27.790 timesteps/s
84.1% CPU use with 64 MPI tasks x 1 OpenMP threads

MPI task timing breakdown:
Section |  min time  |  avg time  |  max time  |%varavg| %total
---------------------------------------------------------------
Pair    | 0.54987    | 0.5907     | 1.0928     |  11.5 | 16.42
Bond    | 0.029386   | 0.033474   | 0.079764   |   3.4 |  0.93
Kspace  | 1.1864     | 1.7338     | 1.8105     |   7.2 | 48.18
Neigh   | 0.20979    | 0.23166    | 0.25211    |   3.1 |  6.44
Comm    | 0.16451    | 0.25391    | 0.37428    |  10.8 |  7.06
Output  | 0.00011489 | 0.00011741 | 0.00019198 |   0.0 |  0.00
Modify  | 0.5501     | 0.6557     | 0.70932    |   5.0 | 18.22
Other   |            | 0.09899    |            |       |  2.75

Nlocal:           4000 ave        4082 max        3941 min
Histogram: 16 8 0 8 16 0 0 0 8 8
Nghost:        16027.6 ave       16083 max       15942 min
Histogram: 8 0 0 16 0 8 0 0 16 16
Neighs:     1.5035e+06 ave 1.55526e+06 max 1.45845e+06 min
Histogram: 12 4 4 10 10 8 0 0 4 12

Total # of neighbors = 96224284
Ave neighs/atom = 375.87611
Ave special neighs/atom = 7.431875
Neighbor list builds = 11
Dangerous builds = 0
Total wall time: 0:00:06
Intel(R) VTune(TM) Profiler 2022.2.0 collection completed successfully. Use the "aps --report /home/ubuntu/lammps/bench/aps_result_20220531" command to generate textual and HTML reports for the profiling session.
