LAMMPS (7 Jan 2022)
  using 1 OpenMP thread(s) per MPI task
Reading data file ...
  orthogonal box = (-27.5 -38.5 -36.3646) to (27.5 38.5 36.3615)
  2 by 4 by 2 MPI processor grid
  reading atoms ...
  32000 atoms
  reading velocities ...
  32000 velocities
  scanning bonds ...
  4 = max bonds/atom
  scanning angles ...
  8 = max angles/atom
  scanning dihedrals ...
  18 = max dihedrals/atom
  scanning impropers ...
  2 = max impropers/atom
  reading bonds ...
  27723 bonds
  reading angles ...
  40467 angles
  reading dihedrals ...
  56829 dihedrals
  reading impropers ...
  1034 impropers
Finding 1-2 1-3 1-4 neighbors ...
  special bond factors lj:    0        0        0       
  special bond factors coul:  0        0        0       
     4 = max # of 1-2 neighbors
    12 = max # of 1-3 neighbors
    24 = max # of 1-4 neighbors
    26 = max # of special neighbors
  special bonds CPU = 0.003 seconds
  read_data CPU = 0.437 seconds
Finding SHAKE clusters ...
    1617 = # of size 2 clusters
    3633 = # of size 3 clusters
     747 = # of size 4 clusters
    4233 = # of frozen angles
  find clusters CPU = 0.002 seconds
Ewald initialization ...
  using 12-bit tables for long-range coulomb (../kspace.cpp:340)
  G vector (1/distance) = 0.24317651
  estimated absolute RMS force accuracy = 0.038892646
  estimated relative force accuracy = 0.00011712405
  KSpace vectors: actual max1d max3d = 5154 15 14895
                  kxmax kymax kzmax  = 11 15 14
----------------------------------------------------------
Using INTEL Package without Coprocessor.
Compiler: Intel Classic C++ 20.21.5 / Intel(R) C++ g++ 9.3 mode
SIMD compiler directives: Enabled
Precision: mixed
----------------------------------------------------------
  generated 2278 of 2278 mixed pair_coeff terms from arithmetic mixing rule
Neighbor list info ...
  update every 1 steps, delay 5 steps, check yes
  max neighbors/atom: 2000, page size: 100000
  master list distance cutoff = 12
  ghost atom cutoff = 12
  binsize = 6, bins = 10 13 13
  1 neighbor lists, perpetual/occasional/extra = 1 0 0
  (1) pair lj/charmm/coul/long/intel, perpetual
      attributes: half, newton on, intel
      pair build: half/bin/newton/intel
      stencil: half/bin/3d
      bin: intel
Setting up Verlet run ...
  Unit style    : real
  Current step  : 0
  Time step     : 2
Per MPI rank memory allocation (min/avg/max) = 60.76 | 61.3 | 61.97 Mbytes
---------------- Step        0 ----- CPU =      0.0000 (sec) ----------------
TotEng   =    -25359.1382 KinEng   =     21444.8313 Temp     =       299.0397 
PotEng   =    -46803.9695 E_bond   =      2537.9949 E_angle  =     10921.3721 
E_dihed  =      5211.7865 E_impro  =       213.5135 E_vdwl   =     -2307.8639 
E_coul   =    200896.8670 E_long   =   -264277.6397 Press    =      -144.5718 
Volume   =    307995.0335 
---------------- Step       50 ----- CPU =      4.2725 (sec) ----------------
TotEng   =    -25332.7298 KinEng   =     21500.7513 Temp     =       299.8195 
PotEng   =    -46833.4811 E_bond   =      2471.7850 E_angle  =     10836.5255 
E_dihed  =      5239.7073 E_impro  =       227.1073 E_vdwl   =     -1993.4973 
E_coul   =    200668.6040 E_long   =   -264283.7130 Press    =       241.5751 
Volume   =    308033.0098 
---------------- Step      100 ----- CPU =      8.5170 (sec) ----------------
TotEng   =    -25294.9861 KinEng   =     21590.4502 Temp     =       301.0703 
PotEng   =    -46885.4363 E_bond   =      2568.1741 E_angle  =     10781.9261 
E_dihed  =      5198.5995 E_impro  =       216.7310 E_vdwl   =     -1899.5783 
E_coul   =    200527.5513 E_long   =   -264278.8401 Press    =        12.4786 
Volume   =    308139.1418 
---------------- Step      150 ----- CPU =     12.7718 (sec) ----------------
TotEng   =    -25263.8947 KinEng   =     21517.8243 Temp     =       300.0575 
PotEng   =    -46781.7190 E_bond   =      2556.1265 E_angle  =     10853.3267 
E_dihed  =      5264.7687 E_impro  =       203.1744 E_vdwl   =     -2074.0359 
E_coul   =    200688.0088 E_long   =   -264273.0882 Press    =       245.5050 
Volume   =    308525.4222 
---------------- Step      200 ----- CPU =     17.0365 (sec) ----------------
TotEng   =    -25091.6007 KinEng   =     21523.0334 Temp     =       300.1302 
PotEng   =    -46614.6341 E_bond   =      2488.5708 E_angle  =     11071.1519 
E_dihed  =      5222.0415 E_impro  =       232.9424 E_vdwl   =     -2119.2983 
E_coul   =    200769.0432 E_long   =   -264279.0855 Press    =        83.3966 
Volume   =    309006.7463 
---------------- Step      250 ----- CPU =     21.2808 (sec) ----------------
TotEng   =    -24956.0786 KinEng   =     21606.7522 Temp     =       301.2976 
PotEng   =    -46562.8308 E_bond   =      2541.2259 E_angle  =     11112.6389 
E_dihed  =      5239.4562 E_impro  =       212.7468 E_vdwl   =     -2208.7096 
E_coul   =    200833.2387 E_long   =   -264293.4278 Press    =      -206.0827 
Volume   =    309413.6542 
---------------- Step      300 ----- CPU =     25.5390 (sec) ----------------
TotEng   =    -24997.6039 KinEng   =     21612.1465 Temp     =       301.3728 
PotEng   =    -46609.7504 E_bond   =      2569.0461 E_angle  =     10940.4920 
E_dihed  =      5222.8421 E_impro  =       220.6745 E_vdwl   =     -2258.3571 
E_coul   =    200958.1290 E_long   =   -264262.5770 Press    =      -445.5304 
Volume   =    309705.9890 
---------------- Step      350 ----- CPU =     29.8511 (sec) ----------------
TotEng   =    -25203.6822 KinEng   =     21462.1732 Temp     =       299.2815 
PotEng   =    -46665.8554 E_bond   =      2584.6172 E_angle  =     10956.7889 
E_dihed  =      5257.6301 E_impro  =       212.9428 E_vdwl   =     -2154.3940 
E_coul   =    200744.1147 E_long   =   -264267.5551 Press    =      -439.3227 
Volume   =    309854.1420 
---------------- Step      400 ----- CPU =     34.1780 (sec) ----------------
TotEng   =    -25345.9433 KinEng   =     21370.0679 Temp     =       297.9971 
PotEng   =    -46716.0112 E_bond   =      2541.5779 E_angle  =     10943.7346 
E_dihed  =      5211.5078 E_impro  =       215.4101 E_vdwl   =     -2181.5043 
E_coul   =    200832.3636 E_long   =   -264279.1009 Press    =        86.8434 
Volume   =    309862.8335 
---------------- Step      450 ----- CPU =     38.5052 (sec) ----------------
TotEng   =    -25290.7481 KinEng   =     21367.0492 Temp     =       297.9550 
PotEng   =    -46657.7972 E_bond   =      2514.2450 E_angle  =     10869.9989 
E_dihed  =      5262.4975 E_impro  =       222.0217 E_vdwl   =     -2102.4387 
E_coul   =    200847.8798 E_long   =   -264272.0014 Press    =       261.7251 
Volume   =    309865.1976 
---------------- Step      500 ----- CPU =     42.8567 (sec) ----------------
TotEng   =    -24968.6593 KinEng   =     21476.0093 Temp     =       299.4744 
PotEng   =    -46444.6686 E_bond   =      2596.4312 E_angle  =     10977.3799 
E_dihed  =      5258.9968 E_impro  =       213.6016 E_vdwl   =     -2226.3082 
E_coul   =    201013.7942 E_long   =   -264278.5640 Press    =      -342.3745 
Volume   =    309906.2823 
---------------- Step      550 ----- CPU =     47.2478 (sec) ----------------
TotEng   =    -24700.9270 KinEng   =     21764.4482 Temp     =       303.4966 
PotEng   =    -46465.3751 E_bond   =      2574.8979 E_angle  =     10942.3513 
E_dihed  =      5225.3980 E_impro  =       232.4260 E_vdwl   =     -1953.0104 
E_coul   =    200782.1686 E_long   =   -264269.6065 Press    =       435.4072 
Volume   =    309994.8113 
---------------- Step      600 ----- CPU =     51.6285 (sec) ----------------
TotEng   =    -24762.8194 KinEng   =     21646.4140 Temp     =       301.8507 
PotEng   =    -46409.2334 E_bond   =      2566.6875 E_angle  =     11025.0359 
E_dihed  =      5249.0198 E_impro  =       220.1338 E_vdwl   =     -2300.6859 
E_coul   =    201107.5731 E_long   =   -264276.9975 Press    =      -181.0327 
Volume   =    310247.3962 
Loop time of 51.6286 on 16 procs for 600 steps with 32000 atoms

Performance: 2.008 ns/day, 11.951 hours/ns, 11.621 timesteps/s
85.3% CPU use with 16 MPI tasks x 1 OpenMP threads

MPI task timing breakdown:
Section |  min time  |  avg time  |  max time  |%varavg| %total
---------------------------------------------------------------
Pair    | 1.6158     | 1.7867     | 3.4026     |  31.3 |  3.46
Bond    | 0.08971    | 0.11517    | 0.28506    |  13.1 |  0.22
Kspace  | 26.775     | 28.541     | 46.442     |  86.9 | 55.28
Neigh   | 0.47991    | 0.4937     | 0.49597    |   0.7 |  0.96
Comm    | 0.34999    | 15.218     | 22.1       | 241.6 | 29.48
Output  | 0.00050671 | 0.00052613 | 0.00076375 |   0.0 |  0.00
Modify  | 0.48978    | 5.4566     | 20.256     | 365.8 | 10.57
Other   |            | 0.01682    |            |       |  0.03

Nlocal:           2000 ave        2042 max        1948 min
Histogram: 1 2 2 1 0 0 3 3 1 3
Nghost:          11827 ave       11921 max       11737 min
Histogram: 2 0 2 2 2 4 0 2 1 1
Neighs:         746668 ave      774664 max      723651 min
Histogram: 4 2 0 1 1 1 2 3 0 2

Total # of neighbors = 11946691
Ave neighs/atom = 373.33409
Ave special neighs/atom = 7.431875
Neighbor list builds = 64
Dangerous builds = 0
Total wall time: 0:00:52
Intel(R) VTune(TM) Profiler 2022.2.0 collection completed successfully. Use the "aps --report /home/ubuntu/lammps/bench/aps_result_20220530" command to generate textual and HTML reports for the profiling session.
