LAMMPS (7 Jan 2022)
  using 1 OpenMP thread(s) per MPI task
Reading data file ...
  orthogonal box = (-27.5 -38.5 -36.3646) to (27.5 38.5 36.3615)
  1 by 1 by 1 MPI processor grid
  reading atoms ...
  32000 atoms
  reading velocities ...
  32000 velocities
  scanning bonds ...
  4 = max bonds/atom
  scanning angles ...
  8 = max angles/atom
  scanning dihedrals ...
  18 = max dihedrals/atom
  scanning impropers ...
  2 = max impropers/atom
  reading bonds ...
  27723 bonds
  reading angles ...
  40467 angles
  reading dihedrals ...
  56829 dihedrals
  reading impropers ...
  1034 impropers
Finding 1-2 1-3 1-4 neighbors ...
  special bond factors lj:    0        0        0       
  special bond factors coul:  0        0        0       
     4 = max # of 1-2 neighbors
    12 = max # of 1-3 neighbors
    24 = max # of 1-4 neighbors
    26 = max # of special neighbors
  special bonds CPU = 0.017 seconds
  read_data CPU = 0.219 seconds
Replicating atoms ...
  orthogonal box = (-27.5 -38.5 -36.3646) to (137.5 192.5 181.8137)
  1 by 1 by 1 MPI processor grid
  864000 atoms
  748521 bonds
  1092609 angles
  1534383 dihedrals
  27918 impropers
Finding 1-2 1-3 1-4 neighbors ...
  special bond factors lj:    0        0        0       
  special bond factors coul:  0        0        0       
     4 = max # of 1-2 neighbors
    12 = max # of 1-3 neighbors
    24 = max # of 1-4 neighbors
    26 = max # of special neighbors
  special bonds CPU = 0.446 seconds
  replicate CPU = 0.721 seconds
Finding SHAKE clusters ...
   43659 = # of size 2 clusters
   98091 = # of size 3 clusters
   20169 = # of size 4 clusters
  114291 = # of frozen angles
  find clusters CPU = 0.197 seconds
PPPM initialization ...
  using 12-bit tables for long-range coulomb (../kspace.cpp:340)
  G vector (1/distance) = 0.25235202
  grid = 72 90 90
  stencil order = 7
  estimated absolute RMS force accuracy = 0.029803316
  estimated relative force accuracy = 8.9751802e-05
  using single precision MKL FFT
  3d grid and FFT values/proc = 743311 583200
----------------------------------------------------------
Using INTEL Package without Coprocessor.
Compiler: Intel Classic C++ 20.21.5 / Intel(R) C++ g++ 9.3 mode
SIMD compiler directives: Enabled
Precision: mixed
----------------------------------------------------------
  generated 2278 of 2278 mixed pair_coeff terms from arithmetic mixing rule
Neighbor list info ...
  update every 1 steps, delay 5 steps, check yes
  max neighbors/atom: 2000, page size: 100000
  master list distance cutoff = 12
  ghost atom cutoff = 12
  binsize = 6, bins = 28 39 37
  1 neighbor lists, perpetual/occasional/extra = 1 0 0
  (1) pair lj/charmm/coul/long/intel, perpetual
      attributes: half, newton on, intel
      pair build: half/bin/newton/intel
      stencil: half/bin/3d
      bin: intel
Setting up Verlet run ...
  Unit style    : real
  Current step  : 0
  Time step     : 2
Per MPI rank memory allocation (min/avg/max) = 8775 | 8775 | 8775 Mbytes
---------------- Step        0 ----- CPU =      0.0000 (sec) ----------------
TotEng   =   -684670.9760 KinEng   =    579010.4447 Temp     =       299.0277 
PotEng   =  -1263681.4207 E_bond   =     68525.6859 E_angle  =    294877.1223 
E_dihed  =    140718.2350 E_impro  =      5764.8965 E_vdwl   =    -62312.3838 
E_coul   =   5692538.4977 E_long   =  -7403793.4743 Press    =      -148.6879 
Volume   =   8315865.9045 
---------------- Step       50 ----- CPU =     87.1287 (sec) ----------------
TotEng   =   -683945.7627 KinEng   =    580526.0519 Temp     =       299.8104 
PotEng   =  -1264471.8146 E_bond   =     66737.4920 E_angle  =    292591.3659 
E_dihed  =    141470.6237 E_impro  =      6132.4116 E_vdwl   =    -53811.2406 
E_coul   =   5686392.7315 E_long   =  -7403985.1988 Press    =       238.9186 
Volume   =   8316862.5499 
---------------- Step      100 ----- CPU =    176.2646 (sec) ----------------
TotEng   =   -682828.0475 KinEng   =    582915.3178 Temp     =       301.0444 
PotEng   =  -1265743.3653 E_bond   =     69335.3407 E_angle  =    291121.2410 
E_dihed  =    140366.2564 E_impro  =      5852.6812 E_vdwl   =    -51271.2472 
E_coul   =   5682697.0665 E_long   =  -7403844.7039 Press    =        14.5775 
Volume   =   8319656.0526 
---------------- Step      150 ----- CPU =    265.7420 (sec) ----------------
TotEng   =   -681934.0757 KinEng   =    581470.5892 Temp     =       300.2982 
PotEng   =  -1263404.6649 E_bond   =     69034.8735 E_angle  =    293077.3630 
E_dihed  =    142143.1653 E_impro  =      5481.5568 E_vdwl   =    -56003.6320 
E_coul   =   5686434.9495 E_long   =  -7403572.9410 Press    =       244.1973 
Volume   =   8330011.8204 
---------------- Step      200 ----- CPU =    355.3256 (sec) ----------------
TotEng   =   -677044.7768 KinEng   =    581663.8393 Temp     =       300.3980 
PotEng   =  -1258708.6161 E_bond   =     67217.2954 E_angle  =    299059.2283 
E_dihed  =    140985.3478 E_impro  =      6276.3670 E_vdwl   =    -58007.7366 
E_coul   =   5689304.8783 E_long   =  -7403543.9963 Press    =        40.8512 
Volume   =   8343000.0739 
---------------- Step      250 ----- CPU =    443.4501 (sec) ----------------
TotEng   =   -673907.6498 KinEng   =    581417.6755 Temp     =       300.2709 
PotEng   =  -1255325.3252 E_bond   =     68622.5453 E_angle  =    299579.3400 
E_dihed  =    141627.1487 E_impro  =      5762.1201 E_vdwl   =    -58461.6134 
E_coul   =   5691559.1617 E_long   =  -7404014.0276 Press    =      -156.4610 
Volume   =   8353619.3810 
---------------- Step      300 ----- CPU =    533.4435 (sec) ----------------
TotEng   =   -675760.5575 KinEng   =    581029.4732 Temp     =       300.0704 
PotEng   =  -1256790.0308 E_bond   =     69142.8407 E_angle  =    294992.5779 
E_dihed  =    140989.4402 E_impro  =      6060.6695 E_vdwl   =    -58719.0087 
E_coul   =   5694370.9361 E_long   =  -7403627.4864 Press    =      -387.0027 
Volume   =   8362035.4448 
---------------- Step      350 ----- CPU =    623.5537 (sec) ----------------
TotEng   =   -678669.2726 KinEng   =    582953.6920 Temp     =       301.0642 
PotEng   =  -1261622.9646 E_bond   =     69685.0395 E_angle  =    295889.5508 
E_dihed  =    141870.0228 E_impro  =      5643.9818 E_vdwl   =    -55446.3016 
E_coul   =   5684701.4257 E_long   =  -7403966.6837 Press    =      -327.8992 
Volume   =   8365844.9276 
---------------- Step      400 ----- CPU =    713.6797 (sec) ----------------
TotEng   =   -682518.8829 KinEng   =    578585.9041 Temp     =       298.8085 
PotEng   =  -1261104.7870 E_bond   =     68683.6855 E_angle  =    295033.8261 
E_dihed  =    140866.9104 E_impro  =      5794.5586 E_vdwl   =    -53556.4091 
E_coul   =   5685805.6497 E_long   =  -7403733.0081 Press    =       269.7905 
Volume   =   8366866.2367 
---------------- Step      450 ----- CPU =    803.8792 (sec) ----------------
TotEng   =   -684303.2495 KinEng   =    578820.8282 Temp     =       298.9298 
PotEng   =  -1263124.0778 E_bond   =     67221.3096 E_angle  =    294395.5671 
E_dihed  =    142287.8629 E_impro  =      6052.9891 E_vdwl   =    -60254.3436 
E_coul   =   5690947.2485 E_long   =  -7403774.7114 Press    =       149.7160 
Volume   =   8368774.3358 
---------------- Step      500 ----- CPU =    895.8962 (sec) ----------------
TotEng   =   -678559.3469 KinEng   =    580610.8337 Temp     =       299.8542 
PotEng   =  -1259170.1806 E_bond   =     69849.2703 E_angle  =    294730.6408 
E_dihed  =    141514.7813 E_impro  =      5869.4249 E_vdwl   =    -58289.5366 
E_coul   =   5690686.6120 E_long   =  -7403531.3734 Press    =      -204.3637 
Volume   =   8369596.4209 
---------------- Step      550 ----- CPU =    986.0934 (sec) ----------------
TotEng   =   -671833.3488 KinEng   =    584499.4397 Temp     =       301.8625 
PotEng   =  -1256332.7885 E_bond   =     68844.7559 E_angle  =    296678.1001 
E_dihed  =    140473.6655 E_impro  =      6460.5394 E_vdwl   =    -57357.8852 
E_coul   =   5692300.4509 E_long   =  -7403732.4151 Press    =       342.2267 
Volume   =   8369479.2072 
---------------- Step      600 ----- CPU =   1078.1598 (sec) ----------------
TotEng   =   -670168.8818 KinEng   =    586146.8450 Temp     =       302.7133 
PotEng   =  -1256315.7268 E_bond   =     67995.5143 E_angle  =    297780.1174 
E_dihed  =    142171.3454 E_impro  =      6077.1940 E_vdwl   =    -58979.6696 
E_coul   =   5692388.4329 E_long   =  -7403748.6612 Press    =        87.8144 
Volume   =   8372686.6018 
---------------- Step      650 ----- CPU =   1168.4535 (sec) ----------------
TotEng   =   -675675.0496 KinEng   =    581974.7495 Temp     =       300.5586 
PotEng   =  -1257649.7991 E_bond   =     68353.6723 E_angle  =    293622.7282 
E_dihed  =    141457.2135 E_impro  =      5700.9014 E_vdwl   =    -57021.4727 
E_coul   =   5693892.5954 E_long   =  -7403655.4371 Press    =      -161.7506 
Volume   =   8375975.4194 
---------------- Step      700 ----- CPU =   1258.7437 (sec) ----------------
TotEng   =   -680121.9140 KinEng   =    580457.6367 Temp     =       299.7751 
PotEng   =  -1260579.5507 E_bond   =     67109.8651 E_angle  =    295806.3495 
E_dihed  =    141355.7446 E_impro  =      5616.7533 E_vdwl   =    -59938.3768 
E_coul   =   5693158.2400 E_long   =  -7403688.1265 Press    =       154.8004 
Volume   =   8377412.2420 
---------------- Step      750 ----- CPU =   1350.9513 (sec) ----------------
TotEng   =   -680572.7641 KinEng   =    578280.7974 Temp     =       298.6509 
PotEng   =  -1258853.5615 E_bond   =     68968.6844 E_angle  =    296775.3343 
E_dihed  =    141952.4772 E_impro  =      5809.6492 E_vdwl   =    -57961.2857 
E_coul   =   5689412.2655 E_long   =  -7403810.6866 Press    =       -25.1763 
Volume   =   8376084.6384 
---------------- Step      800 ----- CPU =   1442.9997 (sec) ----------------
TotEng   =   -678041.8255 KinEng   =    580107.1184 Temp     =       299.5941 
PotEng   =  -1258148.9439 E_bond   =     67804.8031 E_angle  =    298471.2931 
E_dihed  =    142046.5537 E_impro  =      6090.5501 E_vdwl   =    -56697.6616 
E_coul   =   5687733.1284 E_long   =  -7403597.6109 Press    =       -33.1415 
Volume   =   8374009.7838 
---------------- Step      850 ----- CPU =   1533.4147 (sec) ----------------
TotEng   =   -674333.2924 KinEng   =    582488.9716 Temp     =       300.8242 
PotEng   =  -1256822.2641 E_bond   =     68545.2496 E_angle  =    297016.4782 
E_dihed  =    141803.1413 E_impro  =      5890.9390 E_vdwl   =    -55722.9136 
E_coul   =   5689361.6125 E_long   =  -7403716.7709 Press    =       343.1847 
Volume   =   8368382.9630 
---------------- Step      900 ----- CPU =   1625.7712 (sec) ----------------
TotEng   =   -673045.1395 KinEng   =    581780.3517 Temp     =       300.4582 
PotEng   =  -1254825.4912 E_bond   =     68188.8247 E_angle  =    297426.3442 
E_dihed  =    142310.7046 E_impro  =      6171.3418 E_vdwl   =    -54952.2977 
E_coul   =   5689693.3618 E_long   =  -7403663.7706 Press    =       247.5657 
Volume   =   8364440.1361 
---------------- Step      950 ----- CPU =   1716.3469 (sec) ----------------
TotEng   =   -674851.7860 KinEng   =    580815.7548 Temp     =       299.9601 
PotEng   =  -1255667.5409 E_bond   =     68870.7068 E_angle  =    296772.5449 
E_dihed  =    142977.6575 E_impro  =      6436.0262 E_vdwl   =    -56598.1198 
E_coul   =   5689466.6298 E_long   =  -7403592.9864 Press    =       -54.9621 
Volume   =   8364262.9801 
---------------- Step     1000 ----- CPU =   1806.9449 (sec) ----------------
TotEng   =   -678176.2689 KinEng   =    580542.6802 Temp     =       299.8190 
PotEng   =  -1258718.9491 E_bond   =     69415.0323 E_angle  =    296728.4616 
E_dihed  =    141880.6625 E_impro  =      5909.4615 E_vdwl   =    -57936.8170 
E_coul   =   5689033.4356 E_long   =  -7403749.1855 Press    =      -146.8020 
Volume   =   8364854.1461 
---------------- Step     1050 ----- CPU =   1899.3358 (sec) ----------------
TotEng   =   -679728.3896 KinEng   =    579610.8204 Temp     =       299.3378 
PotEng   =  -1259339.2100 E_bond   =     69045.4427 E_angle  =    296913.8310 
E_dihed  =    141449.8528 E_impro  =      6037.4205 E_vdwl   =    -57666.5553 
E_coul   =   5688563.0562 E_long   =  -7403682.2579 Press    =      -114.9077 
Volume   =   8365603.2621 
---------------- Step     1100 ----- CPU =   1990.0568 (sec) ----------------
TotEng   =   -678714.0024 KinEng   =    579620.3134 Temp     =       299.3427 
PotEng   =  -1258334.3158 E_bond   =     69663.5270 E_angle  =    296392.1295 
E_dihed  =    142231.1180 E_impro  =      6181.7760 E_vdwl   =    -58286.4976 
E_coul   =   5689342.2743 E_long   =  -7403858.6429 Press    =       -87.0857 
Volume   =   8363968.8975 
---------------- Step     1150 ----- CPU =   2082.4038 (sec) ----------------
TotEng   =   -675893.4495 KinEng   =    581438.7614 Temp     =       300.2818 
PotEng   =  -1257332.2110 E_bond   =     69016.5242 E_angle  =    296381.1733 
E_dihed  =    142305.3431 E_impro  =      5996.7912 E_vdwl   =    -56169.9881 
E_coul   =   5688819.1714 E_long   =  -7403681.2260 Press    =       150.1105 
Volume   =   8359902.2943 
---------------- Step     1200 ----- CPU =   2173.0517 (sec) ----------------
TotEng   =   -673669.8675 KinEng   =    582380.3765 Temp     =       300.7681 
PotEng   =  -1256050.2440 E_bond   =     69563.3414 E_angle  =    295966.5812 
E_dihed  =    142332.8405 E_impro  =      6024.4510 E_vdwl   =    -56626.3139 
E_coul   =   5690512.9054 E_long   =  -7403824.0495 Press    =        63.2006 
Volume   =   8356364.7899 
---------------- Step     1250 ----- CPU =   2265.6809 (sec) ----------------
TotEng   =   -674168.2089 KinEng   =    582264.8287 Temp     =       300.7084 
PotEng   =  -1256433.0376 E_bond   =     69125.7408 E_angle  =    296640.2431 
E_dihed  =    142110.0724 E_impro  =      6094.4925 E_vdwl   =    -56996.8319 
E_coul   =   5690354.0547 E_long   =  -7403760.8093 Press    =        99.7964 
Volume   =   8355632.8711 
---------------- Step     1300 ----- CPU =   2356.4860 (sec) ----------------
TotEng   =   -676930.1080 KinEng   =    581434.5478 Temp     =       300.2796 
PotEng   =  -1258364.6558 E_bond   =     70242.3644 E_angle  =    296029.1231 
E_dihed  =    142159.2782 E_impro  =      6165.0546 E_vdwl   =    -57880.2845 
E_coul   =   5688681.4956 E_long   =  -7403761.6872 Press    =      -336.9920 
Volume   =   8356657.8393 
---------------- Step     1350 ----- CPU =   2447.2614 (sec) ----------------
TotEng   =   -679197.7668 KinEng   =    578835.3804 Temp     =       298.9373 
PotEng   =  -1258033.1473 E_bond   =     69265.6307 E_angle  =    296074.2509 
E_dihed  =    141911.3435 E_impro  =      6036.0753 E_vdwl   =    -57661.4972 
E_coul   =   5690078.4536 E_long   =  -7403737.4042 Press    =       -51.7291 
Volume   =   8357393.9385 
---------------- Step     1400 ----- CPU =   2539.9537 (sec) ----------------
TotEng   =   -679055.2126 KinEng   =    579213.8306 Temp     =       299.1327 
PotEng   =  -1258269.0432 E_bond   =     69139.1863 E_angle  =    296753.2456 
E_dihed  =    142196.2681 E_impro  =      6072.0189 E_vdwl   =    -57330.5180 
E_coul   =   5688670.0778 E_long   =  -7403769.3219 Press    =      -142.0399 
Volume   =   8356916.0750 
---------------- Step     1450 ----- CPU =   2630.7619 (sec) ----------------
TotEng   =   -677037.5714 KinEng   =    580638.5973 Temp     =       299.8686 
PotEng   =  -1257676.1688 E_bond   =     69402.2832 E_angle  =    296671.3411 
E_dihed  =    142266.7623 E_impro  =      6036.2249 E_vdwl   =    -57989.4545 
E_coul   =   5689821.8613 E_long   =  -7403885.1871 Press    =       -66.0173 
Volume   =   8355232.1820 
---------------- Step     1500 ----- CPU =   2723.4595 (sec) ----------------
TotEng   =   -675370.1450 KinEng   =    583135.6078 Temp     =       301.1581 
PotEng   =  -1258505.7528 E_bond   =     69050.0143 E_angle  =    296602.2433 
E_dihed  =    142248.0417 E_impro  =      6030.3870 E_vdwl   =    -56854.4498 
E_coul   =   5688145.2490 E_long   =  -7403727.2383 Press    =        72.3710 
Volume   =   8353933.8283 
---------------- Step     1550 ----- CPU =   2814.2037 (sec) ----------------
TotEng   =   -675822.4091 KinEng   =    581774.3595 Temp     =       300.4551 
PotEng   =  -1257596.7686 E_bond   =     69409.0641 E_angle  =    296922.0598 
E_dihed  =    142114.1247 E_impro  =      6064.7223 E_vdwl   =    -55971.7570 
E_coul   =   5687602.3618 E_long   =  -7403737.3443 Press    =       130.3875 
Volume   =   8353153.8802 
---------------- Step     1600 ----- CPU =   2904.9459 (sec) ----------------
TotEng   =   -677724.9357 KinEng   =    580870.8491 Temp     =       299.9885 
PotEng   =  -1258595.7848 E_bond   =     68916.1169 E_angle  =    296961.3065 
E_dihed  =    142079.3419 E_impro  =      5975.9153 E_vdwl   =    -57288.6987 
E_coul   =   5688462.9539 E_long   =  -7403702.7206 Press    =        22.1573 
Volume   =   8353404.3228 
---------------- Step     1650 ----- CPU =   2997.6063 (sec) ----------------
TotEng   =   -679012.2154 KinEng   =    579703.2340 Temp     =       299.3855 
PotEng   =  -1258715.4493 E_bond   =     69042.1970 E_angle  =    297047.6470 
E_dihed  =    141997.9739 E_impro  =      5923.4640 E_vdwl   =    -57027.5928 
E_coul   =   5688012.4824 E_long   =  -7403711.6208 Press    =       -29.6443 
Volume   =   8354196.9004 
---------------- Step     1700 ----- CPU =   3088.3228 (sec) ----------------
TotEng   =   -678868.0539 KinEng   =    580396.7892 Temp     =       299.7437 
PotEng   =  -1259264.8431 E_bond   =     68954.1006 E_angle  =    296948.1561 
E_dihed  =    141916.8933 E_impro  =      6009.1386 E_vdwl   =    -56291.8868 
E_coul   =   5687033.6669 E_long   =  -7403834.9118 Press    =       101.7126 
Volume   =   8355425.7999 
---------------- Step     1750 ----- CPU =   3180.9297 (sec) ----------------
TotEng   =   -677720.7369 KinEng   =    580442.9489 Temp     =       299.7675 
PotEng   =  -1258163.6858 E_bond   =     68963.8837 E_angle  =    297729.9599 
E_dihed  =    142138.7658 E_impro  =      6059.3393 E_vdwl   =    -57143.9373 
E_coul   =   5687877.3803 E_long   =  -7403789.0776 Press    =       -17.7436 
Volume   =   8357007.6556 
---------------- Step     1800 ----- CPU =   3271.6437 (sec) ----------------
TotEng   =   -676563.2593 KinEng   =    582152.1672 Temp     =       300.6502 
PotEng   =  -1258715.4265 E_bond   =     68877.4424 E_angle  =    296899.6538 
E_dihed  =    142051.7418 E_impro  =      6061.2463 E_vdwl   =    -55819.3869 
E_coul   =   5686974.7234 E_long   =  -7403760.8472 Press    =       -26.1702 
Volume   =   8358233.7653 
---------------- Step     1850 ----- CPU =   3362.4487 (sec) ----------------
TotEng   =   -676550.7449 KinEng   =    581217.7367 Temp     =       300.1677 
PotEng   =  -1257768.4817 E_bond   =     68984.8419 E_angle  =    297786.4565 
E_dihed  =    142401.8625 E_impro  =      5961.5037 E_vdwl   =    -56366.9598 
E_coul   =   5687219.5858 E_long   =  -7403755.7722 Press    =        -7.6825 
Volume   =   8360273.2913 
---------------- Step     1900 ----- CPU =   3455.2541 (sec) ----------------
TotEng   =   -677338.5633 KinEng   =    580765.9814 Temp     =       299.9343 
PotEng   =  -1258104.5446 E_bond   =     69170.9679 E_angle  =    297278.9382 
E_dihed  =    142210.6676 E_impro  =      6059.5392 E_vdwl   =    -57385.6790 
E_coul   =   5688384.6535 E_long   =  -7403823.6322 Press    =      -119.3678 
Volume   =   8361471.4739 
---------------- Step     1950 ----- CPU =   3547.6489 (sec) ----------------
TotEng   =   -677772.1086 KinEng   =    580566.4109 Temp     =       299.8313 
PotEng   =  -1258338.5195 E_bond   =     68857.0473 E_angle  =    297355.9558 
E_dihed  =    142224.0985 E_impro  =      6162.0835 E_vdwl   =    -55995.5144 
E_coul   =   5686845.1145 E_long   =  -7403787.3047 Press    =       -62.4957 
Volume   =   8361010.5406 
---------------- Step     2000 ----- CPU =   3638.2642 (sec) ----------------
TotEng   =   -677895.0897 KinEng   =    580590.9243 Temp     =       299.8439 
PotEng   =  -1258486.0140 E_bond   =     69349.3491 E_angle  =    297129.5125 
E_dihed  =    142080.8158 E_impro  =      5991.2419 E_vdwl   =    -56640.3166 
E_coul   =   5687369.5096 E_long   =  -7403766.1263 Press    =       -28.3960 
Volume   =   8359948.6276 
---------------- Step     2050 ----- CPU =   3728.9545 (sec) ----------------
TotEng   =   -677848.5760 KinEng   =    581221.8251 Temp     =       300.1698 
PotEng   =  -1259070.4011 E_bond   =     69228.7752 E_angle  =    297565.6999 
E_dihed  =    141951.0418 E_impro  =      6025.6546 E_vdwl   =    -56984.3259 
E_coul   =   5686935.4089 E_long   =  -7403792.6556 Press    =       -75.9665 
Volume   =   8358416.7443 
---------------- Step     2100 ----- CPU =   3821.4384 (sec) ----------------
TotEng   =   -677567.5919 KinEng   =    580959.3670 Temp     =       300.0342 
PotEng   =  -1258526.9588 E_bond   =     69547.4200 E_angle  =    297824.2463 
E_dihed  =    142015.4451 E_impro  =      6030.0016 E_vdwl   =    -55999.1813 
E_coul   =   5685905.2881 E_long   =  -7403850.1785 Press    =       -77.7155 
Volume   =   8356377.9686 
---------------- Step     2150 ----- CPU =   3912.1731 (sec) ----------------
TotEng   =   -677399.4517 KinEng   =    581792.1036 Temp     =       300.4643 
PotEng   =  -1259191.5552 E_bond   =     68970.2536 E_angle  =    297356.6015 
E_dihed  =    142164.5921 E_impro  =      6040.0482 E_vdwl   =    -55258.6805 
E_coul   =   5685246.6848 E_long   =  -7403711.0549 Press    =        80.2377 
Volume   =   8353932.0528 
---------------- Step     2200 ----- CPU =   4004.7808 (sec) ----------------
TotEng   =   -677784.1216 KinEng   =    580786.7882 Temp     =       299.9451 
PotEng   =  -1258570.9098 E_bond   =     69242.3356 E_angle  =    297601.1394 
E_dihed  =    142347.6618 E_impro  =      6154.9941 E_vdwl   =    -55746.8620 
E_coul   =   5685618.3981 E_long   =  -7403788.5768 Press    =       -64.8771 
Volume   =   8352342.0006 
---------------- Step     2250 ----- CPU =   4095.5598 (sec) ----------------
TotEng   =   -678096.8595 KinEng   =    580505.9488 Temp     =       299.8001 
PotEng   =  -1258602.8083 E_bond   =     69189.9602 E_angle  =    297786.1858 
E_dihed  =    142135.4673 E_impro  =      6021.1153 E_vdwl   =    -56699.4020 
E_coul   =   5686748.0688 E_long   =  -7403784.2037 Press    =        25.9872 
Volume   =   8350976.6161 
---------------- Step     2300 ----- CPU =   4188.2764 (sec) ----------------
TotEng   =   -678234.5441 KinEng   =    580384.0291 Temp     =       299.7371 
PotEng   =  -1258618.5733 E_bond   =     69158.4159 E_angle  =    297866.8428 
E_dihed  =    142200.9511 E_impro  =      6043.3258 E_vdwl   =    -55472.4769 
E_coul   =   5685258.8688 E_long   =  -7403674.5006 Press    =        25.7623 
Volume   =   8349446.2882 
---------------- Step     2350 ----- CPU =   4279.0155 (sec) ----------------
TotEng   =   -678713.2549 KinEng   =    580243.8027 Temp     =       299.6647 
PotEng   =  -1258957.0576 E_bond   =     69323.0410 E_angle  =    297588.1870 
E_dihed  =    142017.2305 E_impro  =      5940.0633 E_vdwl   =    -56456.9910 
E_coul   =   5686356.1762 E_long   =  -7403724.7647 Press    =       -32.4135 
Volume   =   8348222.0734 
---------------- Step     2400 ----- CPU =   4371.5131 (sec) ----------------
TotEng   =   -678730.8367 KinEng   =    580930.9861 Temp     =       300.0196 
PotEng   =  -1259661.8228 E_bond   =     69058.0884 E_angle  =    297084.8420 
E_dihed  =    142476.3468 E_impro  =      6063.4340 E_vdwl   =    -56156.7449 
E_coul   =   5685553.2605 E_long   =  -7403741.0496 Press    =       -14.5589 
Volume   =   8347325.5366 
---------------- Step     2450 ----- CPU =   4462.3729 (sec) ----------------
TotEng   =   -678323.5337 KinEng   =    580825.3058 Temp     =       299.9650 
PotEng   =  -1259148.8395 E_bond   =     69580.7797 E_angle  =    297348.1256 
E_dihed  =    142268.3085 E_impro  =      6056.5304 E_vdwl   =    -55876.8691 
E_coul   =   5685274.6841 E_long   =  -7403800.3988 Press    =         8.8922 
Volume   =   8347700.1416 
---------------- Step     2500 ----- CPU =   4554.8732 (sec) ----------------
TotEng   =   -678197.0447 KinEng   =    580872.2185 Temp     =       299.9892 
PotEng   =  -1259069.2632 E_bond   =     69125.0546 E_angle  =    297752.5712 
E_dihed  =    142323.6522 E_impro  =      6074.7550 E_vdwl   =    -56416.4030 
E_coul   =   5685869.9123 E_long   =  -7403798.8056 Press    =        36.0973 
Volume   =   8348714.2466 
---------------- Step     2550 ----- CPU =   4647.5875 (sec) ----------------
TotEng   =   -677977.4490 KinEng   =    581212.8312 Temp     =       300.1651 
PotEng   =  -1259190.2802 E_bond   =     69321.0614 E_angle  =    298161.5840 
E_dihed  =    142152.7503 E_impro  =      6035.4708 E_vdwl   =    -56039.6134 
E_coul   =   5684927.1242 E_long   =  -7403748.6575 Press    =       -95.0653 
Volume   =   8348986.9842 
---------------- Step     2600 ----- CPU =   4738.4489 (sec) ----------------
TotEng   =   -678343.5388 KinEng   =    581253.8916 Temp     =       300.1863 
PotEng   =  -1259597.4303 E_bond   =     69507.5208 E_angle  =    298148.8712 
E_dihed  =    142061.4287 E_impro  =      6022.7614 E_vdwl   =    -56917.7573 
E_coul   =   5685257.4674 E_long   =  -7403677.7227 Press    =      -110.6826 
Volume   =   8348624.4737 
---------------- Step     2650 ----- CPU =   4829.3099 (sec) ----------------
TotEng   =   -679300.2788 KinEng   =    580424.1105 Temp     =       299.7578 
PotEng   =  -1259724.3894 E_bond   =     69474.1879 E_angle  =    298175.6697 
E_dihed  =    141942.8256 E_impro  =      6002.8281 E_vdwl   =    -57145.7659 
E_coul   =   5685549.8484 E_long   =  -7403723.9833 Press    =       -19.2976 
Volume   =   8347782.7830 
---------------- Step     2700 ----- CPU =   4922.0966 (sec) ----------------
TotEng   =   -680136.5527 KinEng   =    580684.4616 Temp     =       299.8922 
PotEng   =  -1260821.0143 E_bond   =     69290.8005 E_angle  =    297456.9810 
E_dihed  =    142069.7834 E_impro  =      6006.3791 E_vdwl   =    -56070.1704 
E_coul   =   5684160.0711 E_long   =  -7403734.8589 Press    =       -10.8761 
Volume   =   8347125.4327 
---------------- Step     2750 ----- CPU =   5012.9165 (sec) ----------------
TotEng   =   -680020.4185 KinEng   =    580786.5795 Temp     =       299.9450 
PotEng   =  -1260806.9979 E_bond   =     69365.9162 E_angle  =    297174.5401 
E_dihed  =    141851.7359 E_impro  =      6027.4235 E_vdwl   =    -55908.8930 
E_coul   =   5684458.3839 E_long   =  -7403776.1046 Press    =        -0.6725 
Volume   =   8346938.5928 
---------------- Step     2800 ----- CPU =   5105.5343 (sec) ----------------
TotEng   =   -679464.3862 KinEng   =    581613.3781 Temp     =       300.3720 
PotEng   =  -1261077.7643 E_bond   =     69187.6290 E_angle  =    297596.6403 
E_dihed  =    141907.2026 E_impro  =      6078.0531 E_vdwl   =    -55733.1386 
E_coul   =   5683651.6254 E_long   =  -7403765.7761 Press    =        56.6461 
Volume   =   8346989.5401 
---------------- Step     2850 ----- CPU =   5196.2819 (sec) ----------------
TotEng   =   -679425.9867 KinEng   =    581315.6516 Temp     =       300.2182 
PotEng   =  -1260741.6383 E_bond   =     68973.3954 E_angle  =    297654.7891 
E_dihed  =    142050.1382 E_impro  =      6052.2428 E_vdwl   =    -56095.3364 
E_coul   =   5684397.5353 E_long   =  -7403774.4027 Press    =         1.8922 
Volume   =   8347469.5782 
---------------- Step     2900 ----- CPU =   5288.9152 (sec) ----------------
TotEng   =   -679105.1538 KinEng   =    581196.3726 Temp     =       300.1566 
PotEng   =  -1260301.5263 E_bond   =     69283.5873 E_angle  =    297984.9831 
E_dihed  =    141983.7169 E_impro  =      6129.9148 E_vdwl   =    -57921.6518 
E_coul   =   5686001.5946 E_long   =  -7403763.6711 Press    =      -117.7339 
Volume   =   8348188.7647 
---------------- Step     2950 ----- CPU =   5379.7729 (sec) ----------------
TotEng   =   -678950.9663 KinEng   =    581748.5790 Temp     =       300.4418 
PotEng   =  -1260699.5454 E_bond   =     69738.8400 E_angle  =    297322.3628 
E_dihed  =    142174.4991 E_impro  =      6053.0452 E_vdwl   =    -56148.8137 
E_coul   =   5683937.3464 E_long   =  -7403776.8252 Press    =       -92.4635 
Volume   =   8347937.9693 
---------------- Step     3000 ----- CPU =   5470.5773 (sec) ----------------
TotEng   =   -679189.5931 KinEng   =    580946.7395 Temp     =       300.0277 
PotEng   =  -1260136.3326 E_bond   =     69440.4737 E_angle  =    297917.7392 
E_dihed  =    142094.8578 E_impro  =      6067.5040 E_vdwl   =    -56440.0113 
E_coul   =   5684539.6862 E_long   =  -7403756.5821 Press    =       -41.6873 
Volume   =   8347330.2624 
---------------- Step     3050 ----- CPU =   5563.3496 (sec) ----------------
TotEng   =   -678986.5285 KinEng   =    580303.7743 Temp     =       299.6956 
PotEng   =  -1259290.3029 E_bond   =     69672.6601 E_angle  =    297702.9121 
E_dihed  =    142534.2845 E_impro  =      6035.9477 E_vdwl   =    -56022.1913 
E_coul   =   5684544.7174 E_long   =  -7403758.6333 Press    =         5.5558 
Volume   =   8346622.8479 
---------------- Step     3100 ----- CPU =   5654.2175 (sec) ----------------
TotEng   =   -678801.0223 KinEng   =    581464.8584 Temp     =       300.2953 
PotEng   =  -1260265.8807 E_bond   =     69767.2395 E_angle  =    296985.2346 
E_dihed  =    142263.9923 E_impro  =      6053.6464 E_vdwl   =    -56192.2430 
E_coul   =   5684565.2291 E_long   =  -7403708.9795 Press    =       -80.0524 
Volume   =   8346308.2617 
---------------- Step     3150 ----- CPU =   5745.0674 (sec) ----------------
TotEng   =   -678842.4534 KinEng   =    581469.8213 Temp     =       300.2978 
PotEng   =  -1260312.2748 E_bond   =     69405.4228 E_angle  =    297954.3845 
E_dihed  =    142064.7586 E_impro  =      6031.4763 E_vdwl   =    -56135.8519 
E_coul   =   5684139.9150 E_long   =  -7403772.3800 Press    =       -33.0543 
Volume   =   8345961.3658 
---------------- Step     3200 ----- CPU =   5836.0257 (sec) ----------------
TotEng   =   -679211.8433 KinEng   =    580916.3432 Temp     =       300.0120 
PotEng   =  -1260128.1865 E_bond   =     69225.4309 E_angle  =    297986.1771 
E_dihed  =    142058.3930 E_impro  =      6021.9256 E_vdwl   =    -56275.2553 
E_coul   =   5684695.3139 E_long   =  -7403840.1717 Press    =       -78.6590 
Volume   =   8345567.4883 
---------------- Step     3250 ----- CPU =   5928.6518 (sec) ----------------
TotEng   =   -679351.5543 KinEng   =    581362.4197 Temp     =       300.2424 
PotEng   =  -1260713.9739 E_bond   =     69259.9696 E_angle  =    297654.7700 
E_dihed  =    141666.1535 E_impro  =      6144.6546 E_vdwl   =    -56625.9617 
E_coul   =   5684942.4066 E_long   =  -7403755.9666 Press    =        33.0792 
Volume   =   8345611.7101 
---------------- Step     3300 ----- CPU =   6019.6395 (sec) ----------------
TotEng   =   -679288.0119 KinEng   =    580111.6984 Temp     =       299.5964 
PotEng   =  -1259399.7103 E_bond   =     69784.0953 E_angle  =    298491.0194 
E_dihed  =    141922.7665 E_impro  =      6077.3308 E_vdwl   =    -56562.8170 
E_coul   =   5684648.8314 E_long   =  -7403760.9367 Press    =       -19.1814 
Volume   =   8345895.3152 
---------------- Step     3350 ----- CPU =   6112.2573 (sec) ----------------
TotEng   =   -679035.1130 KinEng   =    581390.8701 Temp     =       300.2571 
PotEng   =  -1260425.9831 E_bond   =     69422.9135 E_angle  =    297939.4822 
E_dihed  =    141956.0194 E_impro  =      6045.3319 E_vdwl   =    -56298.2630 
E_coul   =   5684325.7400 E_long   =  -7403817.2071 Press    =        13.3700 
Volume   =   8345741.9225 
---------------- Step     3400 ----- CPU =   6203.2575 (sec) ----------------
TotEng   =   -679224.8825 KinEng   =    581311.4204 Temp     =       300.2160 
PotEng   =  -1260536.3029 E_bond   =     69840.8898 E_angle  =    297760.9573 
E_dihed  =    142063.1065 E_impro  =      6103.1518 E_vdwl   =    -56385.5149 
E_coul   =   5683867.8179 E_long   =  -7403786.7112 Press    =       -78.6363 
Volume   =   8345338.5803 
---------------- Step     3450 ----- CPU =   6294.2702 (sec) ----------------
TotEng   =   -679447.1634 KinEng   =    582107.0849 Temp     =       300.6270 
PotEng   =  -1261554.2482 E_bond   =     69374.0023 E_angle  =    297492.1477 
E_dihed  =    142067.1557 E_impro  =      6061.8972 E_vdwl   =    -56650.4538 
E_coul   =   5683817.1532 E_long   =  -7403716.1505 Press    =       -34.5502 
Volume   =   8344738.8153 
---------------- Step     3500 ----- CPU =   6386.8573 (sec) ----------------
TotEng   =   -679842.4458 KinEng   =    581427.5401 Temp     =       300.2760 
PotEng   =  -1261269.9859 E_bond   =     69591.5510 E_angle  =    297285.6934 
E_dihed  =    142292.6689 E_impro  =      6050.6334 E_vdwl   =    -56089.8687 
E_coul   =   5683299.7672 E_long   =  -7403700.4310 Press    =       -28.1249 
Volume   =   8344447.9436 
---------------- Step     3550 ----- CPU =   6477.7006 (sec) ----------------
TotEng   =   -679984.8151 KinEng   =    580422.0148 Temp     =       299.7567 
PotEng   =  -1260406.8300 E_bond   =     69561.9696 E_angle  =    298110.2544 
E_dihed  =    141860.8356 E_impro  =      6022.5343 E_vdwl   =    -56434.6682 
E_coul   =   5684226.2916 E_long   =  -7403754.0474 Press    =       -44.5410 
Volume   =   8344215.6762 
---------------- Step     3600 ----- CPU =   6568.5793 (sec) ----------------
TotEng   =   -679337.7650 KinEng   =    581146.4701 Temp     =       300.1308 
PotEng   =  -1260484.2351 E_bond   =     69462.8439 E_angle  =    297624.4874 
E_dihed  =    141913.5356 E_impro  =      6015.7803 E_vdwl   =    -56462.5332 
E_coul   =   5684818.6254 E_long   =  -7403856.9745 Press    =       -37.8263 
Volume   =   8343585.6680 
---------------- Step     3650 ----- CPU =   6661.5659 (sec) ----------------
TotEng   =   -678639.8274 KinEng   =    581054.7885 Temp     =       300.0835 
PotEng   =  -1259694.6159 E_bond   =     69380.0805 E_angle  =    298843.6500 
E_dihed  =    142340.4614 E_impro  =      6039.6358 E_vdwl   =    -55916.6729 
E_coul   =   5683405.2149 E_long   =  -7403786.9855 Press    =        65.0447 
Volume   =   8343296.0756 
---------------- Step     3700 ----- CPU =   6752.3634 (sec) ----------------
TotEng   =   -678871.8157 KinEng   =    581762.4677 Temp     =       300.4490 
PotEng   =  -1260634.2834 E_bond   =     69572.1815 E_angle  =    298007.9666 
E_dihed  =    142354.0562 E_impro  =      6049.8819 E_vdwl   =    -56686.7346 
E_coul   =   5683840.8096 E_long   =  -7403772.4447 Press    =        12.7547 
Volume   =   8343777.0049 
---------------- Step     3750 ----- CPU =   6845.2767 (sec) ----------------
TotEng   =   -679793.9860 KinEng   =    581037.5824 Temp     =       300.0746 
PotEng   =  -1260831.5683 E_bond   =     69310.6582 E_angle  =    298386.4932 
E_dihed  =    142434.9089 E_impro  =      6126.4538 E_vdwl   =    -56423.6616 
E_coul   =   5683039.3436 E_long   =  -7403705.7644 Press    =        30.5171 
Volume   =   8344363.0712 
---------------- Step     3800 ----- CPU =   6936.0931 (sec) ----------------
TotEng   =   -680542.9388 KinEng   =    580517.8195 Temp     =       299.8062 
PotEng   =  -1261060.7582 E_bond   =     69502.2587 E_angle  =    297485.3107 
E_dihed  =    142421.1155 E_impro  =      6015.7187 E_vdwl   =    -56513.8108 
E_coul   =   5683815.9255 E_long   =  -7403787.2765 Press    =       -14.8289 
Volume   =   8344773.6743 
---------------- Step     3850 ----- CPU =   7027.2769 (sec) ----------------
TotEng   =   -680309.9393 KinEng   =    581002.2666 Temp     =       300.0564 
PotEng   =  -1261312.2059 E_bond   =     69483.4034 E_angle  =    297561.6988 
E_dihed  =    142322.1276 E_impro  =      6022.0693 E_vdwl   =    -55798.9372 
E_coul   =   5682811.9742 E_long   =  -7403714.5419 Press    =         0.6552 
Volume   =   8344362.6038 
---------------- Step     3900 ----- CPU =   7120.1469 (sec) ----------------
TotEng   =   -679748.2738 KinEng   =    581889.9544 Temp     =       300.5148 
PotEng   =  -1261638.2283 E_bond   =     69381.0734 E_angle  =    298189.6596 
E_dihed  =    142025.8182 E_impro  =      5999.1571 E_vdwl   =    -55921.1108 
E_coul   =   5682544.0796 E_long   =  -7403856.9053 Press    =       -15.6645 
Volume   =   8343129.9763 
---------------- Step     3950 ----- CPU =   7212.7813 (sec) ----------------
TotEng   =   -679628.8298 KinEng   =    581163.8485 Temp     =       300.1398 
PotEng   =  -1260792.6784 E_bond   =     69728.0516 E_angle  =    298293.7058 
E_dihed  =    142261.5078 E_impro  =      6042.8948 E_vdwl   =    -56240.9297 
E_coul   =   5682930.7286 E_long   =  -7403808.6375 Press    =       -26.9149 
Volume   =   8342547.5561 
---------------- Step     4000 ----- CPU =   7303.6076 (sec) ----------------
TotEng   =   -679732.2903 KinEng   =    580635.5361 Temp     =       299.8670 
PotEng   =  -1260367.8264 E_bond   =     69723.4619 E_angle  =    298688.6840 
E_dihed  =    142047.8611 E_impro  =      5992.3014 E_vdwl   =    -55731.8610 
E_coul   =   5682704.6571 E_long   =  -7403792.9308 Press    =        65.7285 
Volume   =   8341868.2969 
---------------- Step     4050 ----- CPU =   7394.7625 (sec) ----------------
TotEng   =   -680342.2139 KinEng   =    580999.2780 Temp     =       300.0548 
PotEng   =  -1261341.4919 E_bond   =     69376.9374 E_angle  =    298277.1612 
E_dihed  =    142121.8033 E_impro  =      6061.2700 E_vdwl   =    -55518.1750 
E_coul   =   5682072.6092 E_long   =  -7403733.0981 Press    =        25.7660 
Volume   =   8341512.5132 
---------------- Step     4100 ----- CPU =   7487.4663 (sec) ----------------
TotEng   =   -680787.2212 KinEng   =    579950.7318 Temp     =       299.5133 
PotEng   =  -1260737.9530 E_bond   =     69589.8946 E_angle  =    297903.2960 
E_dihed  =    142156.4704 E_impro  =      6129.6217 E_vdwl   =    -55474.4795 
E_coul   =   5682672.0368 E_long   =  -7403714.7930 Press    =       -13.8816 
Volume   =   8341409.5161 
---------------- Step     4150 ----- CPU =   7578.2815 (sec) ----------------
TotEng   =   -680615.3840 KinEng   =    581496.5552 Temp     =       300.3116 
PotEng   =  -1262111.9392 E_bond   =     69562.9755 E_angle  =    297788.6093 
E_dihed  =    141894.7460 E_impro  =      6106.5358 E_vdwl   =    -56626.6674 
E_coul   =   5682873.3947 E_long   =  -7403711.5330 Press    =       -46.2559 
Volume   =   8341467.3794 
---------------- Step     4200 ----- CPU =   7671.1238 (sec) ----------------
TotEng   =   -680348.6791 KinEng   =    580877.8819 Temp     =       299.9921 
PotEng   =  -1261226.5610 E_bond   =     69523.7618 E_angle  =    298005.1691 
E_dihed  =    141985.1422 E_impro  =      6136.2422 E_vdwl   =    -55943.9764 
E_coul   =   5682866.4281 E_long   =  -7403799.3281 Press    =        20.2065 
Volume   =   8341134.4195 
---------------- Step     4250 ----- CPU =   7762.1153 (sec) ----------------
TotEng   =   -679879.8350 KinEng   =    581066.5660 Temp     =       300.0896 
PotEng   =  -1260946.4009 E_bond   =     69668.2650 E_angle  =    298476.9672 
E_dihed  =    141767.4665 E_impro  =      6064.0064 E_vdwl   =    -56618.1807 
E_coul   =   5683486.3669 E_long   =  -7403791.2923 Press    =        -8.0516 
Volume   =   8340628.9320 
---------------- Step     4300 ----- CPU =   7852.9430 (sec) ----------------
TotEng   =   -679764.8261 KinEng   =    581687.3823 Temp     =       300.4102 
PotEng   =  -1261452.2084 E_bond   =     69716.7497 E_angle  =    298214.4188 
E_dihed  =    141783.7995 E_impro  =      6126.1164 E_vdwl   =    -56406.3291 
E_coul   =   5682939.1345 E_long   =  -7403826.0984 Press    =         9.8844 
Volume   =   8339798.4699 
---------------- Step     4350 ----- CPU =   7945.7944 (sec) ----------------
TotEng   =   -680298.2087 KinEng   =    581219.6836 Temp     =       300.1687 
PotEng   =  -1261517.8923 E_bond   =     69794.5287 E_angle  =    297586.0925 
E_dihed  =    142112.9156 E_impro  =      6139.2197 E_vdwl   =    -56437.9041 
E_coul   =   5683040.0483 E_long   =  -7403752.7931 Press    =       -45.2482 
Volume   =   8339216.5603 
---------------- Step     4400 ----- CPU =   8036.7111 (sec) ----------------
TotEng   =   -680644.7257 KinEng   =    580506.5172 Temp     =       299.8003 
PotEng   =  -1261151.2429 E_bond   =     69307.1482 E_angle  =    298705.2738 
E_dihed  =    142291.0670 E_impro  =      6085.3614 E_vdwl   =    -55489.0787 
E_coul   =   5681797.4896 E_long   =  -7403848.5042 Press    =        24.1281 
Volume   =   8338547.8623 
---------------- Step     4450 ----- CPU =   8129.4288 (sec) ----------------
TotEng   =   -681055.8055 KinEng   =    580152.6772 Temp     =       299.6176 
PotEng   =  -1261208.4827 E_bond   =     69661.9715 E_angle  =    298329.6926 
E_dihed  =    142198.5427 E_impro  =      6043.3002 E_vdwl   =    -54504.0337 
E_coul   =   5680769.3932 E_long   =  -7403707.3492 Press    =         5.3386 
Volume   =   8338568.7713 
---------------- Step     4500 ----- CPU =   8220.4351 (sec) ----------------
TotEng   =   -681205.7314 KinEng   =    580205.8670 Temp     =       299.6451 
PotEng   =  -1261411.5984 E_bond   =     69817.3858 E_angle  =    298115.5254 
E_dihed  =    141839.5327 E_impro  =      6146.8944 E_vdwl   =    -56283.3267 
E_coul   =   5682769.5113 E_long   =  -7403817.1213 Press    =        11.0546 
Volume   =   8339632.0148 
---------------- Step     4550 ----- CPU =   8313.0435 (sec) ----------------
TotEng   =   -680664.4304 KinEng   =    581347.9678 Temp     =       300.2349 
PotEng   =  -1262012.3982 E_bond   =     69893.2666 E_angle  =    298395.9153 
E_dihed  =    141512.9361 E_impro  =      6099.1046 E_vdwl   =    -55915.0203 
E_coul   =   5681811.6365 E_long   =  -7403810.2370 Press    =        20.1019 
Volume   =   8341232.5180 
---------------- Step     4600 ----- CPU =   8404.0168 (sec) ----------------
TotEng   =   -680708.4925 KinEng   =    580417.4305 Temp     =       299.7543 
PotEng   =  -1261125.9230 E_bond   =     69768.4802 E_angle  =    298828.3540 
E_dihed  =    142069.4863 E_impro  =      5962.4059 E_vdwl   =    -56513.0724 
E_coul   =   5682480.4721 E_long   =  -7403722.0492 Press    =       -55.3347 
Volume   =   8342504.0744 
---------------- Step     4650 ----- CPU =   8494.8931 (sec) ----------------
TotEng   =   -680857.1568 KinEng   =    580346.8468 Temp     =       299.7179 
PotEng   =  -1261204.0036 E_bond   =     69692.4479 E_angle  =    299143.7318 
E_dihed  =    142020.4818 E_impro  =      6059.8121 E_vdwl   =    -56906.2035 
E_coul   =   5682560.5324 E_long   =  -7403774.8060 Press    =       -68.7280 
Volume   =   8342652.3731 
---------------- Step     4700 ----- CPU =   8587.6496 (sec) ----------------
TotEng   =   -681044.7187 KinEng   =    581165.9988 Temp     =       300.1409 
PotEng   =  -1262210.7175 E_bond   =     69495.7891 E_angle  =    298183.4180 
E_dihed  =    141942.7181 E_impro  =      6003.3240 E_vdwl   =    -55068.7599 
E_coul   =   5680980.6039 E_long   =  -7403747.8107 Press    =       -12.6847 
Volume   =   8342160.4086 
---------------- Step     4750 ----- CPU =   8678.4550 (sec) ----------------
TotEng   =   -681357.3889 KinEng   =    580760.9933 Temp     =       299.9318 
PotEng   =  -1262118.3823 E_bond   =     69580.2583 E_angle  =    298659.2837 
E_dihed  =    142042.3210 E_impro  =      6022.8652 E_vdwl   =    -55298.3078 
E_coul   =   5680679.4458 E_long   =  -7403804.2484 Press    =        -6.3798 
Volume   =   8341334.9327 
---------------- Step     4800 ----- CPU =   8769.4810 (sec) ----------------
TotEng   =   -681623.4679 KinEng   =    580158.9342 Temp     =       299.6208 
PotEng   =  -1261782.4021 E_bond   =     69774.0988 E_angle  =    298483.0483 
E_dihed  =    142118.8030 E_impro  =      6013.7368 E_vdwl   =    -56487.8392 
E_coul   =   5682140.0089 E_long   =  -7403824.2587 Press    =       -10.2423 
Volume   =   8339951.6125 
---------------- Step     4850 ----- CPU =   8862.3499 (sec) ----------------
TotEng   =   -681475.5452 KinEng   =    581332.6666 Temp     =       300.2270 
PotEng   =  -1262808.2118 E_bond   =     69691.4325 E_angle  =    297886.9523 
E_dihed  =    142067.8038 E_impro  =      6056.9546 E_vdwl   =    -55099.9976 
E_coul   =   5680367.9610 E_long   =  -7403779.3183 Press    =        -9.2655 
Volume   =   8338210.1977 
---------------- Step     4900 ----- CPU =   8953.3949 (sec) ----------------
TotEng   =   -681121.4384 KinEng   =    580572.5434 Temp     =       299.8344 
PotEng   =  -1261693.9817 E_bond   =     69755.9166 E_angle  =    298752.3429 
E_dihed  =    141919.1021 E_impro  =      6033.4951 E_vdwl   =    -54778.4034 
E_coul   =   5680420.7922 E_long   =  -7403797.2272 Press    =        21.8403 
Volume   =   8336569.6127 
---------------- Step     4950 ----- CPU =   9046.2429 (sec) ----------------
TotEng   =   -681057.2663 KinEng   =    581296.4269 Temp     =       300.2083 
PotEng   =  -1262353.6932 E_bond   =     69567.5330 E_angle  =    297991.1480 
E_dihed  =    142044.5818 E_impro  =      6062.8105 E_vdwl   =    -55789.0228 
E_coul   =   5681579.1480 E_long   =  -7403809.8916 Press    =       -30.3430 
Volume   =   8335504.9444 
---------------- Step     5000 ----- CPU =   9137.3152 (sec) ----------------
TotEng   =   -681201.1335 KinEng   =    580492.4522 Temp     =       299.7931 
PotEng   =  -1261693.5857 E_bond   =     69937.2470 E_angle  =    298609.0036 
E_dihed  =    142171.3510 E_impro  =      5981.6293 E_vdwl   =    -56385.2714 
E_coul   =   5681800.6116 E_long   =  -7403808.1568 Press    =       -47.4100 
Volume   =   8333919.4035 
---------------- Step     5050 ----- CPU =   9228.3866 (sec) ----------------
TotEng   =   -681751.9878 KinEng   =    580307.5032 Temp     =       299.6976 
PotEng   =  -1262059.4911 E_bond   =     69696.7749 E_angle  =    298600.7752 
E_dihed  =    142304.5002 E_impro  =      6181.2155 E_vdwl   =    -56436.7564 
E_coul   =   5681443.3047 E_long   =  -7403849.3052 Press    =       -47.9689 
Volume   =   8332657.0475 
---------------- Step     5100 ----- CPU =   9321.0820 (sec) ----------------
TotEng   =   -681890.1284 KinEng   =    580745.4447 Temp     =       299.9237 
PotEng   =  -1262635.5731 E_bond   =     69581.1921 E_angle  =    298587.9213 
E_dihed  =    142141.8772 E_impro  =      5981.1014 E_vdwl   =    -55956.2055 
E_coul   =   5680831.8616 E_long   =  -7403803.3212 Press    =       -12.6446 
Volume   =   8332477.9446 
---------------- Step     5150 ----- CPU =   9412.1275 (sec) ----------------
TotEng   =   -681650.8753 KinEng   =    580683.9199 Temp     =       299.8920 
PotEng   =  -1262334.7951 E_bond   =     69826.0889 E_angle  =    298643.2134 
E_dihed  =    141931.8293 E_impro  =      5925.8521 E_vdwl   =    -56495.0284 
E_coul   =   5681652.4285 E_long   =  -7403819.1789 Press    =        16.8886 
Volume   =   8333227.3934 
---------------- Step     5200 ----- CPU =   9504.8250 (sec) ----------------
TotEng   =   -681496.2246 KinEng   =    581142.0306 Temp     =       300.1286 
PotEng   =  -1262638.2552 E_bond   =     69898.3406 E_angle  =    298865.1110 
E_dihed  =    141848.5828 E_impro  =      6052.0308 E_vdwl   =    -56095.0960 
E_coul   =   5680636.4480 E_long   =  -7403843.6723 Press    =        44.0595 
Volume   =   8333578.2364 
---------------- Step     5250 ----- CPU =   9595.8620 (sec) ----------------
TotEng   =   -681352.5517 KinEng   =    581317.2341 Temp     =       300.2190 
PotEng   =  -1262669.7859 E_bond   =     69655.7534 E_angle  =    298233.7967 
E_dihed  =    141831.0510 E_impro  =      6069.1621 E_vdwl   =    -55886.4196 
E_coul   =   5681233.1027 E_long   =  -7403806.2322 Press    =       -21.7452 
Volume   =   8333679.9298 
---------------- Step     5300 ----- CPU =   9686.8262 (sec) ----------------
TotEng   =   -680950.2326 KinEng   =    580644.0646 Temp     =       299.8714 
PotEng   =  -1261594.2972 E_bond   =     70043.1205 E_angle  =    298613.0750 
E_dihed  =    141963.5638 E_impro  =      6061.3981 E_vdwl   =    -54942.9747 
E_coul   =   5680492.9343 E_long   =  -7403825.4142 Press    =        86.5465 
Volume   =   8332914.1969 
---------------- Step     5350 ----- CPU =   9777.9592 (sec) ----------------
TotEng   =   -681092.1978 KinEng   =    580808.5010 Temp     =       299.9563 
PotEng   =  -1261900.6988 E_bond   =     69830.8954 E_angle  =    299315.6480 
E_dihed  =    142035.1307 E_impro  =      6064.4715 E_vdwl   =    -55075.9277 
E_coul   =   5679722.2123 E_long   =  -7403793.1290 Press    =       -32.1764 
Volume   =   8332795.1490 
---------------- Step     5400 ----- CPU =   9870.7471 (sec) ----------------
TotEng   =   -681656.2205 KinEng   =    580997.0795 Temp     =       300.0537 
PotEng   =  -1262653.3000 E_bond   =     69737.5798 E_angle  =    298963.0463 
E_dihed  =    141976.0578 E_impro  =      6155.1933 E_vdwl   =    -55871.7590 
E_coul   =   5680206.1685 E_long   =  -7403819.5868 Press    =       -53.4731 
Volume   =   8332980.9817 
---------------- Step     5450 ----- CPU =   9961.6388 (sec) ----------------
TotEng   =   -681799.1265 KinEng   =    581229.4673 Temp     =       300.1737 
PotEng   =  -1263028.5938 E_bond   =     69733.0159 E_angle  =    298385.6268 
E_dihed  =    141751.9482 E_impro  =      6069.5698 E_vdwl   =    -55734.7328 
E_coul   =   5680644.2410 E_long   =  -7403878.2627 Press    =        36.0383 
Volume   =   8333251.1528 
---------------- Step     5500 ----- CPU =  10054.4592 (sec) ----------------
TotEng   =   -681313.0135 KinEng   =    580787.1829 Temp     =       299.9453 
PotEng   =  -1262100.1964 E_bond   =     69764.1218 E_angle  =    299345.5655 
E_dihed  =    141991.5830 E_impro  =      6069.9407 E_vdwl   =    -55672.2542 
E_coul   =   5680238.2521 E_long   =  -7403837.4052 Press    =        20.1185 
Volume   =   8333363.6126 
---------------- Step     5550 ----- CPU =  10147.2730 (sec) ----------------
TotEng   =   -680939.1632 KinEng   =    581207.2138 Temp     =       300.1622 
PotEng   =  -1262146.3770 E_bond   =     69902.8751 E_angle  =    298915.6150 
E_dihed  =    141819.9169 E_impro  =      6142.3719 E_vdwl   =    -56186.4314 
E_coul   =   5681053.5152 E_long   =  -7403794.2396 Press    =       -36.4174 
Volume   =   8333881.4397 
---------------- Step     5600 ----- CPU =  10238.2471 (sec) ----------------
TotEng   =   -681175.6788 KinEng   =    581146.3501 Temp     =       300.1308 
PotEng   =  -1262322.0289 E_bond   =     69827.1570 E_angle  =    299075.8123 
E_dihed  =    141993.4892 E_impro  =      6070.9186 E_vdwl   =    -54869.3117 
E_coul   =   5679400.8317 E_long   =  -7403820.9259 Press    =         4.8536 
Volume   =   8334291.3727 
---------------- Step     5650 ----- CPU =  10331.2038 (sec) ----------------
TotEng   =   -681950.6678 KinEng   =    580548.6018 Temp     =       299.8221 
PotEng   =  -1262499.2696 E_bond   =     69794.8313 E_angle  =    299093.0043 
E_dihed  =    142138.8401 E_impro  =      6029.9924 E_vdwl   =    -56011.1764 
E_coul   =   5680332.2518 E_long   =  -7403877.0130 Press    =       -67.8655 
Volume   =   8335361.5915 
---------------- Step     5700 ----- CPU =  10422.1502 (sec) ----------------
TotEng   =   -682027.4657 KinEng   =    580767.3343 Temp     =       299.9350 
PotEng   =  -1262794.8000 E_bond   =     70166.5836 E_angle  =    298446.8381 
E_dihed  =    141895.0724 E_impro  =      6051.7384 E_vdwl   =    -57313.0770 
E_coul   =   5681809.2588 E_long   =  -7403851.2143 Press    =        -4.2283 
Volume   =   8335800.8826 
---------------- Step     5750 ----- CPU =  10514.7730 (sec) ----------------
TotEng   =   -681675.5765 KinEng   =    580530.2247 Temp     =       299.8126 
PotEng   =  -1262205.8012 E_bond   =     70107.8788 E_angle  =    299120.7945 
E_dihed  =    142194.5877 E_impro  =      6056.2831 E_vdwl   =    -56293.7896 
E_coul   =   5680340.4402 E_long   =  -7403731.9958 Press    =       -39.7451 
Volume   =   8335337.9356 
---------------- Step     5800 ----- CPU =  10605.8016 (sec) ----------------
TotEng   =   -681425.1000 KinEng   =    580951.2979 Temp     =       300.0301 
PotEng   =  -1262376.3979 E_bond   =     69976.2259 E_angle  =    299463.9891 
E_dihed  =    141648.7174 E_impro  =      5989.6313 E_vdwl   =    -55652.8153 
E_coul   =   5679977.7786 E_long   =  -7403779.9250 Press    =        -3.1035 
Volume   =   8335047.1563 
---------------- Step     5850 ----- CPU =  10698.5599 (sec) ----------------
TotEng   =   -681954.2025 KinEng   =    580939.1579 Temp     =       300.0238 
PotEng   =  -1262893.3604 E_bond   =     70079.4931 E_angle  =    299313.6401 
E_dihed  =    142000.9236 E_impro  =      6027.6563 E_vdwl   =    -55827.9329 
E_coul   =   5679230.4979 E_long   =  -7403717.6384 Press    =       -73.7682 
Volume   =   8335695.1255 
---------------- Step     5900 ----- CPU =  10789.5495 (sec) ----------------
TotEng   =   -682794.4918 KinEng   =    579372.3097 Temp     =       299.2146 
PotEng   =  -1262166.8015 E_bond   =     70031.9261 E_angle  =    299134.9822 
E_dihed  =    142088.0170 E_impro  =      6065.2229 E_vdwl   =    -56426.9106 
E_coul   =   5680759.0396 E_long   =  -7403819.0787 Press    =        -7.8254 
Volume   =   8335743.2960 
---------------- Step     5950 ----- CPU =  10880.6443 (sec) ----------------
TotEng   =   -682190.3247 KinEng   =    580821.6618 Temp     =       299.9631 
PotEng   =  -1263011.9866 E_bond   =     69825.2032 E_angle  =    299105.0050 
E_dihed  =    141820.4149 E_impro  =      6085.9713 E_vdwl   =    -55439.0993 
E_coul   =   5679459.8034 E_long   =  -7403869.2851 Press    =       -79.8571 
Volume   =   8335348.7221 
---------------- Step     6000 ----- CPU =  10973.2993 (sec) ----------------
TotEng   =   -680909.1012 KinEng   =    581343.1417 Temp     =       300.2324 
PotEng   =  -1262252.2429 E_bond   =     69965.2432 E_angle  =    299389.9023 
E_dihed  =    142300.9497 E_impro  =      6053.1311 E_vdwl   =    -55051.0506 
E_coul   =   5678889.8969 E_long   =  -7403800.3155 Press    =        13.8325 
Volume   =   8334892.9515 
---------------- Step     6050 ----- CPU =  11064.2195 (sec) ----------------
TotEng   =   -680502.2336 KinEng   =    581318.7886 Temp     =       300.2198 
PotEng   =  -1261821.0221 E_bond   =     69882.0844 E_angle  =    299626.1711 
E_dihed  =    142164.2544 E_impro  =      6166.3748 E_vdwl   =    -55862.6012 
E_coul   =   5680013.7940 E_long   =  -7403811.0997 Press    =       -33.3292 
Volume   =   8334687.0908 
---------------- Step     6100 ----- CPU =  11155.2312 (sec) ----------------
TotEng   =   -681136.7087 KinEng   =    581863.5920 Temp     =       300.5012 
PotEng   =  -1263000.3006 E_bond   =     70025.2952 E_angle  =    299497.8698 
E_dihed  =    142051.5030 E_impro  =      6108.8898 E_vdwl   =    -55403.2932 
E_coul   =   5678530.6941 E_long   =  -7403811.2594 Press    =        -8.1149 
Volume   =   8333782.4744 
---------------- Step     6150 ----- CPU =  11248.1315 (sec) ----------------
TotEng   =   -683002.1454 KinEng   =    580038.1733 Temp     =       299.5585 
PotEng   =  -1263040.3188 E_bond   =     70089.4094 E_angle  =    298692.2439 
E_dihed  =    142133.0396 E_impro  =      6013.8037 E_vdwl   =    -56253.6926 
E_coul   =   5680053.3538 E_long   =  -7403768.4764 Press    =       -56.5014 
Volume   =   8332224.3792 
---------------- Step     6200 ----- CPU =  11339.2104 (sec) ----------------
TotEng   =   -683930.3178 KinEng   =    580114.9080 Temp     =       299.5981 
PotEng   =  -1264045.2258 E_bond   =     69892.2551 E_angle  =    298751.4510 
E_dihed  =    142082.3631 E_impro  =      6040.2014 E_vdwl   =    -56768.7296 
E_coul   =   5679780.1060 E_long   =  -7403822.8728 Press    =       -58.4603 
Volume   =   8330528.8651 
---------------- Step     6250 ----- CPU =  11430.1398 (sec) ----------------
TotEng   =   -683385.6047 KinEng   =    580556.8901 Temp     =       299.8264 
PotEng   =  -1263942.4947 E_bond   =     69584.1346 E_angle  =    299295.4413 
E_dihed  =    142255.1966 E_impro  =      6076.8298 E_vdwl   =    -55393.1908 
E_coul   =   5678095.2741 E_long   =  -7403856.1803 Press    =       -73.4816 
Volume   =   8328580.2925 
---------------- Step     6300 ----- CPU =  11523.2088 (sec) ----------------
TotEng   =   -682126.5797 KinEng   =    581834.4908 Temp     =       300.4862 
PotEng   =  -1263961.0705 E_bond   =     69495.8671 E_angle  =    298998.1498 
E_dihed  =    142178.8480 E_impro  =      6026.8299 E_vdwl   =    -55812.0605 
E_coul   =   5679015.6915 E_long   =  -7403864.3962 Press    =        -1.0132 
Volume   =   8326577.6899 
---------------- Step     6350 ----- CPU =  11614.4630 (sec) ----------------
TotEng   =   -681281.0825 KinEng   =    580507.9005 Temp     =       299.8011 
PotEng   =  -1261788.9829 E_bond   =     70031.6060 E_angle  =    299965.2381 
E_dihed  =    142322.9549 E_impro  =      6119.1461 E_vdwl   =    -54843.7419 
E_coul   =   5678366.3047 E_long   =  -7403750.4908 Press    =        81.6883 
Volume   =   8325058.3229 
---------------- Step     6400 ----- CPU =  11707.6301 (sec) ----------------
TotEng   =   -681585.4444 KinEng   =    581897.2245 Temp     =       300.5186 
PotEng   =  -1263482.6689 E_bond   =     70010.6817 E_angle  =    299433.0565 
E_dihed  =    142248.6365 E_impro  =      6097.5592 E_vdwl   =    -55494.3815 
E_coul   =   5678001.1507 E_long   =  -7403779.3720 Press    =       -44.5553 
Volume   =   8324967.6817 
---------------- Step     6450 ----- CPU =  11798.7621 (sec) ----------------
TotEng   =   -682978.7411 KinEng   =    580646.6816 Temp     =       299.8727 
PotEng   =  -1263625.4227 E_bond   =     69593.7578 E_angle  =    299057.3017 
E_dihed  =    142565.8850 E_impro  =      6067.0494 E_vdwl   =    -55354.6257 
E_coul   =   5678358.3876 E_long   =  -7403913.1786 Press    =       129.4705 
Volume   =   8324880.5845 
---------------- Step     6500 ----- CPU =  11889.7461 (sec) ----------------
TotEng   =   -683562.5158 KinEng   =    580207.3685 Temp     =       299.6459 
PotEng   =  -1263769.8842 E_bond   =     69724.8501 E_angle  =    299814.5044 
E_dihed  =    142027.2134 E_impro  =      6083.8312 E_vdwl   =    -56352.4676 
E_coul   =   5678690.5309 E_long   =  -7403758.3467 Press    =       -65.1123 
Volume   =   8325371.8921 
---------------- Step     6550 ----- CPU =  11982.5778 (sec) ----------------
TotEng   =   -683207.9639 KinEng   =    580709.1064 Temp     =       299.9050 
PotEng   =  -1263917.0702 E_bond   =     69842.4392 E_angle  =    299597.3479 
E_dihed  =    141983.2341 E_impro  =      6017.1600 E_vdwl   =    -56810.8150 
E_coul   =   5679251.3075 E_long   =  -7403797.7439 Press    =       -32.1668 
Volume   =   8325710.7426 
---------------- Step     6600 ----- CPU =  12073.7789 (sec) ----------------
TotEng   =   -682276.8140 KinEng   =    581537.7725 Temp     =       300.3329 
PotEng   =  -1263814.5866 E_bond   =     69929.1130 E_angle  =    299308.6510 
E_dihed  =    141879.0727 E_impro  =      6050.4845 E_vdwl   =    -55432.5268 
E_coul   =   5678330.6362 E_long   =  -7403880.0173 Press    =        27.1348 
Volume   =   8326694.1309 
---------------- Step     6650 ----- CPU =  12164.7619 (sec) ----------------
TotEng   =   -681857.6037 KinEng   =    580948.3844 Temp     =       300.0285 
PotEng   =  -1262805.9880 E_bond   =     70017.1109 E_angle  =    299980.4695 
E_dihed  =    142026.8880 E_impro  =      6107.6952 E_vdwl   =    -55661.3672 
E_coul   =   5678527.8327 E_long   =  -7403804.6173 Press    =        15.1337 
Volume   =   8327346.5061 
---------------- Step     6700 ----- CPU =  12257.5991 (sec) ----------------
TotEng   =   -682261.6201 KinEng   =    581243.3076 Temp     =       300.1809 
PotEng   =  -1263504.9277 E_bond   =     69923.0990 E_angle  =    299975.0820 
E_dihed  =    142249.4675 E_impro  =      6152.4898 E_vdwl   =    -56801.0570 
E_coul   =   5678841.3262 E_long   =  -7403845.3352 Press    =       -94.3067 
Volume   =   8328168.4066 
---------------- Step     6750 ----- CPU =  12348.5639 (sec) ----------------
TotEng   =   -683030.7212 KinEng   =    580246.2088 Temp     =       299.6659 
PotEng   =  -1263276.9300 E_bond   =     69883.8062 E_angle  =    299683.1498 
E_dihed  =    142118.9836 E_impro  =      6050.7487 E_vdwl   =    -55851.4491 
E_coul   =   5678716.4402 E_long   =  -7403878.6093 Press    =        32.3284 
Volume   =   8328252.7150 
---------------- Step     6800 ----- CPU =  12441.3560 (sec) ----------------
TotEng   =   -683265.0230 KinEng   =    580818.7385 Temp     =       299.9616 
PotEng   =  -1264083.7615 E_bond   =     69865.3314 E_angle  =    299695.4612 
E_dihed  =    141997.2053 E_impro  =      6063.0085 E_vdwl   =    -56182.2535 
E_coul   =   5678282.3825 E_long   =  -7403804.8968 Press    =        35.9561 
Volume   =   8328009.6169 
---------------- Step     6850 ----- CPU =  12532.3189 (sec) ----------------
TotEng   =   -683169.6921 KinEng   =    581268.3109 Temp     =       300.1938 
PotEng   =  -1264438.0030 E_bond   =     69451.6684 E_angle  =    299213.1261 
E_dihed  =    141737.8108 E_impro  =      6068.3045 E_vdwl   =    -55930.3776 
E_coul   =   5678860.6623 E_long   =  -7403839.1976 Press    =       -71.0557 
Volume   =   8328368.9089 
---------------- Step     6900 ----- CPU =  12623.4747 (sec) ----------------
TotEng   =   -683007.3343 KinEng   =    581083.6962 Temp     =       300.0984 
PotEng   =  -1264091.0306 E_bond   =     69466.9465 E_angle  =    299492.2826 
E_dihed  =    142327.9629 E_impro  =      6053.8096 E_vdwl   =    -54979.4861 
E_coul   =   5677396.7596 E_long   =  -7403849.3056 Press    =        52.1882 
Volume   =   8328200.4065 
---------------- Step     6950 ----- CPU =  12716.4631 (sec) ----------------
TotEng   =   -683133.6610 KinEng   =    580449.4293 Temp     =       299.7709 
PotEng   =  -1263583.0903 E_bond   =     69768.0597 E_angle  =    299860.3754 
E_dihed  =    142312.9174 E_impro  =      6150.8905 E_vdwl   =    -55234.5408 
E_coul   =   5677410.4196 E_long   =  -7403851.2120 Press    =        -0.1223 
Volume   =   8329246.2977 
---------------- Step     7000 ----- CPU =  12809.2116 (sec) ----------------
TotEng   =   -683193.4607 KinEng   =    580631.0206 Temp     =       299.8646 
PotEng   =  -1263824.4813 E_bond   =     69981.5404 E_angle  =    299484.2008 
E_dihed  =    142195.7632 E_impro  =      6009.2865 E_vdwl   =    -55496.8293 
E_coul   =   5677777.4851 E_long   =  -7403775.9279 Press    =       -39.1048 
Volume   =   8330499.1395 
---------------- Step     7050 ----- CPU =  12900.2038 (sec) ----------------
TotEng   =   -682948.4987 KinEng   =    580477.3067 Temp     =       299.7853 
PotEng   =  -1263425.8053 E_bond   =     70054.4302 E_angle  =    299749.2053 
E_dihed  =    142038.6759 E_impro  =      6138.4205 E_vdwl   =    -56342.0132 
E_coul   =   5678698.0445 E_long   =  -7403762.5684 Press    =      -102.9596 
Volume   =   8331589.5912 
---------------- Step     7100 ----- CPU =  12992.9732 (sec) ----------------
TotEng   =   -682538.2417 KinEng   =    580927.3549 Temp     =       300.0177 
PotEng   =  -1263465.5966 E_bond   =     69581.1983 E_angle  =    299987.8240 
E_dihed  =    142081.2158 E_impro  =      6067.8033 E_vdwl   =    -56118.4979 
E_coul   =   5678740.6435 E_long   =  -7403805.7835 Press    =       -14.7375 
Volume   =   8331517.0474 
---------------- Step     7150 ----- CPU =  13083.9211 (sec) ----------------
TotEng   =   -682427.5949 KinEng   =    580947.8929 Temp     =       300.0283 
PotEng   =  -1263375.4878 E_bond   =     69722.1251 E_angle  =    300239.7039 
E_dihed  =    141905.1291 E_impro  =      6072.6818 E_vdwl   =    -56082.2781 
E_coul   =   5678547.0240 E_long   =  -7403779.8736 Press    =       -46.2578 
Volume   =   8330645.7706 
---------------- Step     7200 ----- CPU =  13174.8577 (sec) ----------------
TotEng   =   -682268.4492 KinEng   =    580933.5639 Temp     =       300.0209 
PotEng   =  -1263202.0131 E_bond   =     69966.8758 E_angle  =    299947.6714 
E_dihed  =    142204.0142 E_impro  =      6062.8586 E_vdwl   =    -55585.2133 
E_coul   =   5677993.9164 E_long   =  -7403792.1362 Press    =       -23.4362 
Volume   =   8329718.3144 
---------------- Step     7250 ----- CPU =  13265.9359 (sec) ----------------
TotEng   =   -682727.2383 KinEng   =    580795.1221 Temp     =       299.9494 
PotEng   =  -1263522.3605 E_bond   =     69831.2002 E_angle  =    299541.6989 
E_dihed  =    142321.8865 E_impro  =      6037.0441 E_vdwl   =    -55336.4350 
E_coul   =   5677969.0056 E_long   =  -7403886.7608 Press    =        39.9300 
Volume   =   8328362.5500 
---------------- Step     7300 ----- CPU =  13358.7451 (sec) ----------------
TotEng   =   -683627.8474 KinEng   =    580150.0003 Temp     =       299.6162 
PotEng   =  -1263777.8477 E_bond   =     69989.5740 E_angle  =    299456.7811 
E_dihed  =    142104.0553 E_impro  =      6072.4811 E_vdwl   =    -54271.8900 
E_coul   =   5676698.7613 E_long   =  -7403827.6105 Press    =        35.0307 
Volume   =   8327256.0453 
---------------- Step     7350 ----- CPU =  13449.8501 (sec) ----------------
TotEng   =   -684136.9364 KinEng   =    580858.7008 Temp     =       299.9822 
PotEng   =  -1264995.6372 E_bond   =     70210.0373 E_angle  =    299239.6988 
E_dihed  =    141940.7197 E_impro  =      6189.1650 E_vdwl   =    -55168.3604 
E_coul   =   5676410.0684 E_long   =  -7403816.9660 Press    =       -74.1404 
Volume   =   8326503.4020 
---------------- Step     7400 ----- CPU =  13542.7653 (sec) ----------------
TotEng   =   -684092.1634 KinEng   =    579935.4882 Temp     =       299.5054 
PotEng   =  -1264027.6516 E_bond   =     69770.5762 E_angle  =    299994.9328 
E_dihed  =    142133.9099 E_impro  =      6039.7073 E_vdwl   =    -55788.1654 
E_coul   =   5677618.5735 E_long   =  -7403797.1860 Press    =       -38.4304 
Volume   =   8324625.8186 
---------------- Step     7450 ----- CPU =  13633.9056 (sec) ----------------
TotEng   =   -683219.7765 KinEng   =    579410.1888 Temp     =       299.2342 
PotEng   =  -1262629.9654 E_bond   =     69848.0236 E_angle  =    300150.8223 
E_dihed  =    142524.1866 E_impro  =      6098.9709 E_vdwl   =    -55783.7495 
E_coul   =   5678378.3461 E_long   =  -7403846.5655 Press    =        -5.3024 
Volume   =   8322518.2661 
---------------- Step     7500 ----- CPU =  13724.9879 (sec) ----------------
TotEng   =   -682047.1086 KinEng   =    581251.5284 Temp     =       300.1851 
PotEng   =  -1263298.6370 E_bond   =     70042.7673 E_angle  =    299719.8949 
E_dihed  =    142663.1561 E_impro  =      6041.6880 E_vdwl   =    -55397.1792 
E_coul   =   5677433.2051 E_long   =  -7403802.1692 Press    =       -34.1596 
Volume   =   8320432.0279 
---------------- Step     7550 ----- CPU =  13817.8640 (sec) ----------------
TotEng   =   -681718.7335 KinEng   =    581480.5243 Temp     =       300.3034 
PotEng   =  -1263199.2578 E_bond   =     69952.6826 E_angle  =    299388.9231 
E_dihed  =    142661.8825 E_impro  =      6096.8593 E_vdwl   =    -54058.5934 
E_coul   =   5676610.4418 E_long   =  -7403851.4537 Press    =        75.8438 
Volume   =   8319250.7336 
---------------- Step     7600 ----- CPU =  13909.0212 (sec) ----------------
TotEng   =   -682754.0572 KinEng   =    581180.3933 Temp     =       300.1484 
PotEng   =  -1263934.4506 E_bond   =     69670.4757 E_angle  =    299751.3870 
E_dihed  =    142154.5854 E_impro  =      6122.9931 E_vdwl   =    -55653.4994 
E_coul   =   5677807.9788 E_long   =  -7403788.3710 Press    =        59.7994 
Volume   =   8319887.6648 
---------------- Step     7650 ----- CPU =  14000.2200 (sec) ----------------
TotEng   =   -684030.5579 KinEng   =    580468.7643 Temp     =       299.7808 
PotEng   =  -1264499.3221 E_bond   =     70234.3926 E_angle  =    299427.5788 
E_dihed  =    142178.0946 E_impro  =      6025.9296 E_vdwl   =    -55864.7663 
E_coul   =   5677291.6121 E_long   =  -7403792.1636 Press    =       -96.2369 
Volume   =   8321645.6449 
---------------- Step     7700 ----- CPU =  14093.2056 (sec) ----------------
TotEng   =   -684817.8848 KinEng   =    579604.4925 Temp     =       299.3345 
PotEng   =  -1264422.3773 E_bond   =     69808.5020 E_angle  =    299570.1543 
E_dihed  =    142261.8415 E_impro  =      6052.5529 E_vdwl   =    -55907.5332 
E_coul   =   5677619.2522 E_long   =  -7403827.1470 Press    =       -77.8190 
Volume   =   8323374.6037 
---------------- Step     7750 ----- CPU =  14184.2274 (sec) ----------------
TotEng   =   -683950.5125 KinEng   =    580897.5754 Temp     =       300.0023 
PotEng   =  -1264848.0879 E_bond   =     69661.0249 E_angle  =    299550.7698 
E_dihed  =    142180.4126 E_impro  =      6081.4754 E_vdwl   =    -55322.2166 
E_coul   =   5676867.7067 E_long   =  -7403867.2608 Press    =         0.9289 
Volume   =   8324588.3010 
---------------- Step     7800 ----- CPU =  14276.9871 (sec) ----------------
TotEng   =   -682500.0853 KinEng   =    581936.4278 Temp     =       300.5388 
PotEng   =  -1264436.5131 E_bond   =     69988.9850 E_angle  =    299610.8782 
E_dihed  =    142207.1258 E_impro  =      6049.2211 E_vdwl   =    -55725.6907 
E_coul   =   5677330.9825 E_long   =  -7403898.0151 Press    =       -21.1049 
Volume   =   8325705.9732 
---------------- Step     7850 ----- CPU =  14367.9166 (sec) ----------------
TotEng   =   -681973.4512 KinEng   =    580873.7541 Temp     =       299.9900 
PotEng   =  -1262847.2053 E_bond   =     70147.4303 E_angle  =    299861.7469 
E_dihed  =    142259.2504 E_impro  =      6123.6428 E_vdwl   =    -55136.6090 
E_coul   =   5677724.4044 E_long   =  -7403827.0711 Press    =       -28.1832 
Volume   =   8326637.3755 
---------------- Step     7900 ----- CPU =  14460.6412 (sec) ----------------
TotEng   =   -681906.0904 KinEng   =    580815.8917 Temp     =       299.9601 
PotEng   =  -1262721.9821 E_bond   =     69880.7005 E_angle  =    300625.2952 
E_dihed  =    142113.4988 E_impro  =      6124.7599 E_vdwl   =    -56632.2913 
E_coul   =   5678910.6501 E_long   =  -7403744.5954 Press    =       -54.3342 
Volume   =   8326922.7453 
---------------- Step     7950 ----- CPU =  14551.6010 (sec) ----------------
TotEng   =   -682110.6100 KinEng   =    581282.4616 Temp     =       300.2011 
PotEng   =  -1263393.0716 E_bond   =     69997.6424 E_angle  =    300177.0523 
E_dihed  =    141970.9681 E_impro  =      6079.8142 E_vdwl   =    -55460.7853 
E_coul   =   5677668.8834 E_long   =  -7403826.6467 Press    =       -40.8355 
Volume   =   8326661.6840 
---------------- Step     8000 ----- CPU =  14644.4747 (sec) ----------------
TotEng   =   -682901.1856 KinEng   =    580608.8640 Temp     =       299.8532 
PotEng   =  -1263510.0496 E_bond   =     69769.3455 E_angle  =    299685.8326 
E_dihed  =    142311.4022 E_impro  =      6145.5137 E_vdwl   =    -55300.2924 
E_coul   =   5677645.7011 E_long   =  -7403767.5523 Press    =        37.1888 
Volume   =   8325743.2908 
---------------- Step     8050 ----- CPU =  14735.5658 (sec) ----------------
TotEng   =   -683421.4546 KinEng   =    580625.4301 Temp     =       299.8618 
PotEng   =  -1264046.8847 E_bond   =     69965.5311 E_angle  =    299908.4226 
E_dihed  =    142157.1111 E_impro  =      6023.8924 E_vdwl   =    -54922.5740 
E_coul   =   5676606.9043 E_long   =  -7403786.1722 Press    =         8.0405 
Volume   =   8324787.0664 
---------------- Step     8100 ----- CPU =  14826.7800 (sec) ----------------
TotEng   =   -683567.8659 KinEng   =    581207.4146 Temp     =       300.1623 
PotEng   =  -1264775.2805 E_bond   =     70130.3859 E_angle  =    299583.4564 
E_dihed  =    142150.5810 E_impro  =      6123.1820 E_vdwl   =    -55313.8133 
E_coul   =   5676343.0442 E_long   =  -7403792.1167 Press    =        -7.2761 
Volume   =   8324461.3304 
---------------- Step     8150 ----- CPU =  14919.7379 (sec) ----------------
TotEng   =   -683876.2371 KinEng   =    580713.3907 Temp     =       299.9072 
PotEng   =  -1264589.6278 E_bond   =     69935.9538 E_angle  =    299707.9534 
E_dihed  =    142173.6877 E_impro  =      6088.7668 E_vdwl   =    -56083.3697 
E_coul   =   5677386.7175 E_long   =  -7403799.3374 Press    =       -61.2625 
Volume   =   8324637.6842 
---------------- Step     8200 ----- CPU =  15010.7026 (sec) ----------------
TotEng   =   -683864.8528 KinEng   =    580485.8248 Temp     =       299.7897 
PotEng   =  -1264350.6776 E_bond   =     70113.3485 E_angle  =    299643.3147 
E_dihed  =    142003.7448 E_impro  =      6088.2094 E_vdwl   =    -55476.1762 
E_coul   =   5677081.5387 E_long   =  -7403804.6575 Press    =         4.3628 
Volume   =   8325017.2415 
---------------- Step     8250 ----- CPU =  15101.7380 (sec) ----------------
TotEng   =   -683439.9528 KinEng   =    580535.6804 Temp     =       299.8154 
PotEng   =  -1263975.6333 E_bond   =     70084.6811 E_angle  =    300103.4786 
E_dihed  =    141907.3179 E_impro  =      6103.8118 E_vdwl   =    -55445.7334 
E_coul   =   5677043.4709 E_long   =  -7403772.6602 Press    =       -68.8389 
Volume   =   8325897.3299 
---------------- Step     8300 ----- CPU =  15194.5361 (sec) ----------------
TotEng   =   -682741.2149 KinEng   =    581213.2192 Temp     =       300.1653 
PotEng   =  -1263954.4342 E_bond   =     69832.2457 E_angle  =    300003.5657 
E_dihed  =    142168.9812 E_impro  =      6206.9840 E_vdwl   =    -56354.1870 
E_coul   =   5678041.0983 E_long   =  -7403853.1221 Press    =       -76.0723 
Volume   =   8326967.7546 
---------------- Step     8350 ----- CPU =  15285.6731 (sec) ----------------
TotEng   =   -682302.8852 KinEng   =    580687.1374 Temp     =       299.8936 
PotEng   =  -1262990.0226 E_bond   =     70007.2446 E_angle  =    300176.7219 
E_dihed  =    142171.2202 E_impro  =      6188.2361 E_vdwl   =    -56125.9635 
E_coul   =   5678376.5164 E_long   =  -7403783.9983 Press    =       -30.3182 
Volume   =   8327855.4056 
---------------- Step     8400 ----- CPU =  15378.3465 (sec) ----------------
TotEng   =   -682122.7085 KinEng   =    581063.7070 Temp     =       300.0881 
PotEng   =  -1263186.4155 E_bond   =     69939.6406 E_angle  =    300294.9784 
E_dihed  =    142064.9585 E_impro  =      6106.7741 E_vdwl   =    -56430.4349 
E_coul   =   5678675.7466 E_long   =  -7403838.0789 Press    =       -67.4177 
Volume   =   8328579.1370 
---------------- Step     8450 ----- CPU =  15469.3500 (sec) ----------------
TotEng   =   -682488.0387 KinEng   =    580391.7131 Temp     =       299.7411 
PotEng   =  -1262879.7518 E_bond   =     70172.8631 E_angle  =    299922.3949 
E_dihed  =    142439.3215 E_impro  =      6153.0168 E_vdwl   =    -55675.8941 
E_coul   =   5677944.5079 E_long   =  -7403835.9619 Press    =       -31.8052 
Volume   =   8328584.9038 
---------------- Step     8500 ----- CPU =  15560.3912 (sec) ----------------
TotEng   =   -682879.7646 KinEng   =    581004.4019 Temp     =       300.0575 
PotEng   =  -1263884.1665 E_bond   =     70199.2354 E_angle  =    299859.6323 
E_dihed  =    142349.8157 E_impro  =      6153.6223 E_vdwl   =    -55834.3798 
E_coul   =   5677236.2059 E_long   =  -7403848.2984 Press    =       -84.1521 
Volume   =   8328075.2100 
---------------- Step     8550 ----- CPU =  15653.2484 (sec) ----------------
TotEng   =   -683811.5580 KinEng   =    581039.6876 Temp     =       300.0757 
PotEng   =  -1264851.2456 E_bond   =     69765.3307 E_angle  =    300099.1095 
E_dihed  =    142107.3162 E_impro  =      6038.0656 E_vdwl   =    -54922.3093 
E_coul   =   5675892.7214 E_long   =  -7403831.4797 Press    =        68.0623 
Volume   =   8326594.2240 
---------------- Step     8600 ----- CPU =  15744.2129 (sec) ----------------
TotEng   =   -685085.5855 KinEng   =    579958.4792 Temp     =       299.5173 
PotEng   =  -1265044.0646 E_bond   =     70177.4673 E_angle  =    299218.9919 
E_dihed  =    142249.9330 E_impro  =      5894.1977 E_vdwl   =    -56507.7582 
E_coul   =   5677742.0608 E_long   =  -7403818.9571 Press    =       -94.3523 
Volume   =   8325187.6693 
---------------- Step     8650 ----- CPU =  15837.1186 (sec) ----------------
TotEng   =   -684886.3296 KinEng   =    579881.0930 Temp     =       299.4773 
PotEng   =  -1264767.4226 E_bond   =     69894.6281 E_angle  =    299668.7234 
E_dihed  =    142045.8937 E_impro  =      6058.1872 E_vdwl   =    -55838.4087 
E_coul   =   5677157.0670 E_long   =  -7403753.5133 Press    =       -36.6946 
Volume   =   8324501.4494 
---------------- Step     8700 ----- CPU =  15928.1215 (sec) ----------------
TotEng   =   -682967.3631 KinEng   =    581479.1203 Temp     =       300.3026 
PotEng   =  -1264446.4833 E_bond   =     70188.9958 E_angle  =    300442.7936 
E_dihed  =    141896.0576 E_impro  =      6083.4636 E_vdwl   =    -55626.8531 
E_coul   =   5676397.5169 E_long   =  -7403828.4576 Press    =       -13.7751 
Volume   =   8323613.9154 
---------------- Step     8750 ----- CPU =  16019.1130 (sec) ----------------
TotEng   =   -682438.8765 KinEng   =    581097.4582 Temp     =       300.1055 
PotEng   =  -1263536.3347 E_bond   =     70057.8933 E_angle  =    300770.1445 
E_dihed  =    142227.4821 E_impro  =      5960.5644 E_vdwl   =    -54914.5151 
E_coul   =   5676178.8506 E_long   =  -7403816.7544 Press    =        82.7284 
Volume   =   8323499.6038 
---------------- Step     8800 ----- CPU =  16112.1319 (sec) ----------------
TotEng   =   -683466.5423 KinEng   =    580729.7205 Temp     =       299.9156 
PotEng   =  -1264196.2627 E_bond   =     70217.1206 E_angle  =    300065.9809 
E_dihed  =    142195.2533 E_impro  =      6001.3703 E_vdwl   =    -55807.7113 
E_coul   =   5677006.7786 E_long   =  -7403875.0552 Press    =       -98.9748 
Volume   =   8324061.5992 
---------------- Step     8850 ----- CPU =  16203.0637 (sec) ----------------
TotEng   =   -684700.7530 KinEng   =    580677.8991 Temp     =       299.8889 
PotEng   =  -1265378.6521 E_bond   =     69858.6140 E_angle  =    299629.0340 
E_dihed  =    141761.4966 E_impro  =      6032.2626 E_vdwl   =    -55277.1963 
E_coul   =   5676451.3153 E_long   =  -7403834.1782 Press    =       -67.2599 
Volume   =   8324218.1871 
---------------- Step     8900 ----- CPU =  16294.3485 (sec) ----------------
TotEng   =   -685012.3830 KinEng   =    580115.7120 Temp     =       299.5985 
PotEng   =  -1265128.0951 E_bond   =     69634.3081 E_angle  =    299455.9240 
E_dihed  =    142164.6449 E_impro  =      6067.7254 E_vdwl   =    -55100.6042 
E_coul   =   5676421.4962 E_long   =  -7403771.5895 Press    =        52.4360 
Volume   =   8323764.6402 
---------------- Step     8950 ----- CPU =  16387.2233 (sec) ----------------
TotEng   =   -683980.2589 KinEng   =    580744.2361 Temp     =       299.9231 
PotEng   =  -1264724.4950 E_bond   =     69922.9238 E_angle  =    300349.8393 
E_dihed  =    142047.8214 E_impro  =      6013.3342 E_vdwl   =    -55508.2655 
E_coul   =   5676243.1416 E_long   =  -7403793.2898 Press    =       -83.6547 
Volume   =   8323872.9068 
---------------- Step     9000 ----- CPU =  16478.4151 (sec) ----------------
TotEng   =   -682511.8416 KinEng   =    581098.1322 Temp     =       300.1059 
PotEng   =  -1263609.9737 E_bond   =     69963.6430 E_angle  =    300286.3926 
E_dihed  =    142365.0903 E_impro  =      6137.6306 E_vdwl   =    -55118.1053 
E_coul   =   5676565.4677 E_long   =  -7403810.0928 Press    =        23.9705 
Volume   =   8322889.0269 
---------------- Step     9050 ----- CPU =  16569.4807 (sec) ----------------
TotEng   =   -682037.0454 KinEng   =    582700.6835 Temp     =       300.9335 
PotEng   =  -1264737.7289 E_bond   =     69925.5877 E_angle  =    299974.8891 
E_dihed  =    141857.0164 E_impro  =      6074.6289 E_vdwl   =    -55224.5776 
E_coul   =   5676430.8445 E_long   =  -7403776.1179 Press    =        43.0511 
Volume   =   8322314.8180 
---------------- Step     9100 ----- CPU =  16660.5104 (sec) ----------------
TotEng   =   -683247.6068 KinEng   =    580529.2994 Temp     =       299.8121 
PotEng   =  -1263776.9061 E_bond   =     70022.7348 E_angle  =    300206.0626 
E_dihed  =    142037.4494 E_impro  =      6111.6625 E_vdwl   =    -56113.3455 
E_coul   =   5677797.5887 E_long   =  -7403839.0587 Press    =        30.3865 
Volume   =   8321575.4883 
---------------- Step     9150 ----- CPU =  16753.3539 (sec) ----------------
TotEng   =   -684198.5342 KinEng   =    580875.5640 Temp     =       299.9909 
PotEng   =  -1265074.0982 E_bond   =     69649.2259 E_angle  =    299347.0629 
E_dihed  =    142173.5515 E_impro  =      6044.6677 E_vdwl   =    -56189.3164 
E_coul   =   5677714.5305 E_long   =  -7403813.8202 Press    =         7.5160 
Volume   =   8321158.7655 
---------------- Step     9200 ----- CPU =  16844.5134 (sec) ----------------
TotEng   =   -683968.8488 KinEng   =    580493.9965 Temp     =       299.7939 
PotEng   =  -1264462.8453 E_bond   =     70182.3684 E_angle  =    299999.2292 
E_dihed  =    141998.3889 E_impro  =      6104.7832 E_vdwl   =    -55477.3413 
E_coul   =   5676583.3344 E_long   =  -7403853.6082 Press    =       -34.9285 
Volume   =   8320848.9410 
---------------- Step     9250 ----- CPU =  16937.4356 (sec) ----------------
TotEng   =   -683204.3968 KinEng   =    581040.1425 Temp     =       300.0759 
PotEng   =  -1264244.5393 E_bond   =     70002.3282 E_angle  =    300127.8835 
E_dihed  =    142203.2440 E_impro  =      6019.7614 E_vdwl   =    -54797.5115 
E_coul   =   5675972.8465 E_long   =  -7403773.0914 Press    =        74.5096 
Volume   =   8321180.0014 
---------------- Step     9300 ----- CPU =  17028.5904 (sec) ----------------
TotEng   =   -683016.3408 KinEng   =    580648.9646 Temp     =       299.8739 
PotEng   =  -1263665.3054 E_bond   =     70130.0368 E_angle  =    300353.5155 
E_dihed  =    142055.1856 E_impro  =      6056.2072 E_vdwl   =    -55616.9503 
E_coul   =   5677140.6317 E_long   =  -7403783.9319 Press    =        37.8760 
Volume   =   8322479.9068 
---------------- Step     9350 ----- CPU =  17119.7069 (sec) ----------------
TotEng   =   -683342.8473 KinEng   =    581309.9321 Temp     =       300.2153 
PotEng   =  -1264652.7793 E_bond   =     69964.2925 E_angle  =    299902.6298 
E_dihed  =    142505.4671 E_impro  =      5959.3356 E_vdwl   =    -55680.9932 
E_coul   =   5676577.4631 E_long   =  -7403880.9742 Press    =      -128.3105 
Volume   =   8323667.1607 
---------------- Step     9400 ----- CPU =  17212.4257 (sec) ----------------
TotEng   =   -683501.5110 KinEng   =    581058.7231 Temp     =       300.0855 
PotEng   =  -1264560.2340 E_bond   =     70206.5546 E_angle  =    299746.1690 
E_dihed  =    141914.7003 E_impro  =      6077.4874 E_vdwl   =    -55512.7189 
E_coul   =   5676794.6516 E_long   =  -7403787.0781 Press    =        37.3432 
Volume   =   8324919.0661 
---------------- Step     9450 ----- CPU =  17303.6307 (sec) ----------------
TotEng   =   -683814.0839 KinEng   =    581142.2866 Temp     =       300.1287 
PotEng   =  -1264956.3705 E_bond   =     70000.2813 E_angle  =    299940.3409 
E_dihed  =    141961.4457 E_impro  =      6087.3869 E_vdwl   =    -56489.9006 
E_coul   =   5677334.3695 E_long   =  -7403790.2942 Press    =       -92.7780 
Volume   =   8326159.9135 
---------------- Step     9500 ----- CPU =  17396.5437 (sec) ----------------
TotEng   =   -684425.4547 KinEng   =    580246.0293 Temp     =       299.6658 
PotEng   =  -1264671.4841 E_bond   =     70047.3596 E_angle  =    299092.6247 
E_dihed  =    142355.0702 E_impro  =      6094.6030 E_vdwl   =    -54889.9064 
E_coul   =   5676435.5241 E_long   =  -7403806.7593 Press    =        18.5777 
Volume   =   8326479.5170 
---------------- Step     9550 ----- CPU =  17487.4081 (sec) ----------------
TotEng   =   -684283.5905 KinEng   =    580275.0529 Temp     =       299.6808 
PotEng   =  -1264558.6434 E_bond   =     69840.5449 E_angle  =    300072.7069 
E_dihed  =    142537.5332 E_impro  =      6058.9491 E_vdwl   =    -56057.7857 
E_coul   =   5676796.9063 E_long   =  -7403807.4983 Press    =      -119.8510 
Volume   =   8326463.0708 
---------------- Step     9600 ----- CPU =  17578.5174 (sec) ----------------
TotEng   =   -683660.2946 KinEng   =    581127.4610 Temp     =       300.1210 
PotEng   =  -1264787.7555 E_bond   =     69716.7332 E_angle  =    300516.2968 
E_dihed  =    142369.0327 E_impro  =      6033.2222 E_vdwl   =    -55401.6325 
E_coul   =   5675836.1332 E_long   =  -7403857.5413 Press    =       -62.2458 
Volume   =   8325273.7982 
---------------- Step     9650 ----- CPU =  17671.3844 (sec) ----------------
TotEng   =   -683030.8196 KinEng   =    581310.1591 Temp     =       300.2154 
PotEng   =  -1264340.9787 E_bond   =     69938.6378 E_angle  =    299716.9876 
E_dihed  =    142604.9257 E_impro  =      6102.9837 E_vdwl   =    -55257.5765 
E_coul   =   5676359.2828 E_long   =  -7403806.2199 Press    =         0.1586 
Volume   =   8323218.1911 
---------------- Step     9700 ----- CPU =  17762.4974 (sec) ----------------
TotEng   =   -683365.9583 KinEng   =    580813.1020 Temp     =       299.9587 
PotEng   =  -1264179.0603 E_bond   =     69891.6159 E_angle  =    300575.1283 
E_dihed  =    142282.0676 E_impro  =      6073.0097 E_vdwl   =    -54310.9226 
E_coul   =   5675131.0070 E_long   =  -7403820.9662 Press    =        35.9227 
Volume   =   8321858.8273 
---------------- Step     9750 ----- CPU =  17853.5063 (sec) ----------------
TotEng   =   -684118.4919 KinEng   =    579873.8416 Temp     =       299.4736 
PotEng   =  -1263992.3335 E_bond   =     70366.2294 E_angle  =    299943.6978 
E_dihed  =    142310.4622 E_impro  =      6133.6626 E_vdwl   =    -55965.5828 
E_coul   =   5677077.7432 E_long   =  -7403858.5459 Press    =       -61.6432 
Volume   =   8321867.4285 
---------------- Step     9800 ----- CPU =  17946.5351 (sec) ----------------
TotEng   =   -684287.1060 KinEng   =    580316.9143 Temp     =       299.7024 
PotEng   =  -1264604.0203 E_bond   =     69600.7964 E_angle  =    300025.3238 
E_dihed  =    142284.1201 E_impro  =      6077.9713 E_vdwl   =    -54785.8519 
E_coul   =   5676041.0779 E_long   =  -7403847.4579 Press    =        56.3868 
Volume   =   8321697.6706 
---------------- Step     9850 ----- CPU =  18037.5293 (sec) ----------------
TotEng   =   -683733.5487 KinEng   =    580415.2776 Temp     =       299.7532 
PotEng   =  -1264148.8263 E_bond   =     69911.6038 E_angle  =    300167.1179 
E_dihed  =    142441.6492 E_impro  =      6070.6597 E_vdwl   =    -55421.4600 
E_coul   =   5676576.2003 E_long   =  -7403894.5972 Press    =        19.0484 
Volume   =   8322219.9044 
---------------- Step     9900 ----- CPU =  18128.6201 (sec) ----------------
TotEng   =   -682831.5500 KinEng   =    580781.8708 Temp     =       299.9426 
PotEng   =  -1263613.4208 E_bond   =     70040.9568 E_angle  =    300378.8498 
E_dihed  =    142380.0946 E_impro  =      6174.0999 E_vdwl   =    -54656.1456 
E_coul   =   5675935.0129 E_long   =  -7403866.2893 Press    =       -75.5901 
Volume   =   8322685.2721 
---------------- Step     9950 ----- CPU =  18219.6652 (sec) ----------------
TotEng   =   -682517.5591 KinEng   =    581157.1993 Temp     =       300.1364 
PotEng   =  -1263674.7584 E_bond   =     70067.3097 E_angle  =    300380.0869 
E_dihed  =    142638.4026 E_impro  =      6107.8416 E_vdwl   =    -55223.5433 
E_coul   =   5676129.5597 E_long   =  -7403774.4156 Press    =       -12.6038 
Volume   =   8323240.9718 
---------------- Step    10000 ----- CPU =  18312.6799 (sec) ----------------
TotEng   =   -683009.3607 KinEng   =    580552.3283 Temp     =       299.8240 
PotEng   =  -1263561.6890 E_bond   =     70043.6045 E_angle  =    300746.8107 
E_dihed  =    142387.3720 E_impro  =      6018.3403 E_vdwl   =    -54653.9334 
E_coul   =   5675812.9721 E_long   =  -7403916.8552 Press    =        74.8099 
Volume   =   8322957.5491 
Loop time of 18312.7 on 1 procs for 10000 steps with 864000 atoms

Performance: 0.094 ns/day, 254.343 hours/ns, 0.546 timesteps/s
100.0% CPU use with 1 MPI tasks x 1 OpenMP threads

MPI task timing breakdown:
Section |  min time  |  avg time  |  max time  |%varavg| %total
---------------------------------------------------------------
Pair    | 11767      | 11767      | 11767      |   0.0 | 64.26
Bond    | 755.63     | 755.63     | 755.63     |   0.0 |  4.13
Kspace  | 1793.2     | 1793.2     | 1793.2     |   0.0 |  9.79
Neigh   | 1719       | 1719       | 1719       |   0.0 |  9.39
Comm    | 599.3      | 599.3      | 599.3      |   0.0 |  3.27
Output  | 0.29133    | 0.29133    | 0.29133    |   0.0 |  0.00
Modify  | 1633.3     | 1633.3     | 1633.3     |   0.0 |  8.92
Other   |            | 44.59      |            |       |  0.24

Nlocal:         864000 ave      864000 max      864000 min
Histogram: 1 0 0 0 0 0 0 0 0 0
Nghost:         347606 ave      347606 max      347606 min
Histogram: 1 0 0 0 0 0 0 0 0 0
Neighs:     3.2461e+08 ave  3.2461e+08 max  3.2461e+08 min
Histogram: 1 0 0 0 0 0 0 0 0 0

Total # of neighbors = 3.2460989e+08
Ave neighs/atom = 375.7059
Ave special neighs/atom = 7.431875
Neighbor list builds = 1276
Dangerous builds = 0
Total wall time: 5:05:18
Intel(R) VTune(TM) Profiler 2022.2.0 collection completed successfully. Use the "aps --report /home/ubuntu/lammps/bench/aps_result_20220703" command to generate textual and HTML reports for the profiling session.
