LAMMPS (7 Jan 2022)
  using 1 OpenMP thread(s) per MPI task
Reading data file ...
  orthogonal box = (-27.5 -38.5 -36.3646) to (27.5 38.5 36.3615)
  1 by 1 by 1 MPI processor grid
  reading atoms ...
  32000 atoms
  reading velocities ...
  32000 velocities
  scanning bonds ...
  4 = max bonds/atom
  scanning angles ...
  8 = max angles/atom
  scanning dihedrals ...
  18 = max dihedrals/atom
  scanning impropers ...
  2 = max impropers/atom
  reading bonds ...
  27723 bonds
  reading angles ...
  40467 angles
  reading dihedrals ...
  56829 dihedrals
  reading impropers ...
  1034 impropers
Finding 1-2 1-3 1-4 neighbors ...
  special bond factors lj:    0        0        0       
  special bond factors coul:  0        0        0       
     4 = max # of 1-2 neighbors
    12 = max # of 1-3 neighbors
    24 = max # of 1-4 neighbors
    26 = max # of special neighbors
  special bonds CPU = 0.012 seconds
  read_data CPU = 0.215 seconds
Finding SHAKE clusters ...
    1617 = # of size 2 clusters
    3633 = # of size 3 clusters
     747 = # of size 4 clusters
    4233 = # of frozen angles
  find clusters CPU = 0.006 seconds
PPPM initialization ...
  using 12-bit tables for long-range coulomb (../kspace.cpp:340)
  G vector (1/distance) = 0.25235202
  grid = 24 30 30
  stencil order = 7
  estimated absolute RMS force accuracy = 0.029803316
  estimated relative force accuracy = 8.9751802e-05
  using single precision MKL FFT
  3d grid and FFT values/proc = 42439 21600
----------------------------------------------------------
Using INTEL Package without Coprocessor.
Compiler: Intel Classic C++ 20.21.5 / Intel(R) C++ g++ 9.3 mode
SIMD compiler directives: Enabled
Precision: mixed
----------------------------------------------------------
  generated 2278 of 2278 mixed pair_coeff terms from arithmetic mixing rule
Neighbor list info ...
  update every 1 steps, delay 5 steps, check yes
  max neighbors/atom: 2000, page size: 100000
  master list distance cutoff = 12
  ghost atom cutoff = 12
  binsize = 6, bins = 10 13 13
  1 neighbor lists, perpetual/occasional/extra = 1 0 0
  (1) pair lj/charmm/coul/long/intel, perpetual
      attributes: half, newton on, intel
      pair build: half/bin/newton/intel
      stencil: half/bin/3d
      bin: intel
Setting up Verlet run ...
  Unit style    : real
  Current step  : 0
  Time step     : 2
Per MPI rank memory allocation (min/avg/max) = 366.7 | 366.7 | 366.7 Mbytes
---------------- Step        0 ----- CPU =      0.0000 (sec) ----------------
TotEng   =    -25358.1687 KinEng   =     21444.8313 Temp     =       299.0397 
PotEng   =    -46803.0000 E_bond   =      2537.9949 E_angle  =     10921.3721 
E_dihed  =      5211.7865 E_impro  =       213.5135 E_vdwl   =     -2307.8639 
E_coul   =    210834.7641 E_long   =   -274214.5673 Press    =      -148.6999 
Volume   =    307995.0335 
---------------- Step       50 ----- CPU =      3.1158 (sec) ----------------
TotEng   =    -25332.0885 KinEng   =     21500.5566 Temp     =       299.8167 
PotEng   =    -46832.6450 E_bond   =      2471.7259 E_angle  =     10836.5712 
E_dihed  =      5239.6332 E_impro  =       227.1229 E_vdwl   =     -1993.0612 
E_coul   =    210607.0408 E_long   =   -274221.6778 Press    =       238.8230 
Volume   =    308031.9402 
---------------- Step      100 ----- CPU =      6.2794 (sec) ----------------
TotEng   =    -25292.3451 KinEng   =     21588.2753 Temp     =       301.0399 
PotEng   =    -46880.6205 E_bond   =      2567.8576 E_angle  =     10781.8324 
E_dihed  =      5198.6559 E_impro  =       216.7595 E_vdwl   =     -1899.0469 
E_coul   =    210469.7924 E_long   =   -274216.4713 Press    =        14.2895 
Volume   =    308135.3235 
---------------- Step      150 ----- CPU =      9.4460 (sec) ----------------
TotEng   =    -25260.1884 KinEng   =     21534.2200 Temp     =       300.2862 
PotEng   =    -46794.4084 E_bond   =      2556.6630 E_angle  =     10854.0624 
E_dihed  =      5264.4371 E_impro  =       203.0095 E_vdwl   =     -2074.2899 
E_coul   =    210608.1099 E_long   =   -274206.4004 Press    =       243.9918 
Volume   =    308518.6133 
---------------- Step      200 ----- CPU =     12.5500 (sec) ----------------
TotEng   =    -25078.7075 KinEng   =     21540.4272 Temp     =       300.3727 
PotEng   =    -46619.1348 E_bond   =      2489.3933 E_angle  =     11075.6337 
E_dihed  =      5221.5649 E_impro  =       232.4410 E_vdwl   =     -2148.4541 
E_coul   =    210715.6687 E_long   =   -274205.3822 Press    =        40.9864 
Volume   =    308999.3887 
---------------- Step      250 ----- CPU =     15.7081 (sec) ----------------
TotEng   =    -24959.8698 KinEng   =     21534.3938 Temp     =       300.2886 
PotEng   =    -46494.2636 E_bond   =      2541.5708 E_angle  =     11095.7699 
E_dihed  =      5245.9059 E_impro  =       213.7104 E_vdwl   =     -2162.5609 
E_coul   =    210794.2800 E_long   =   -274222.9396 Press    =      -153.8862 
Volume   =    309392.6400 
---------------- Step      300 ----- CPU =     18.8089 (sec) ----------------
TotEng   =    -25026.9470 KinEng   =     21526.0168 Temp     =       300.1718 
PotEng   =    -46552.9638 E_bond   =      2560.7283 E_angle  =     10926.3498 
E_dihed  =      5220.7844 E_impro  =       224.1823 E_vdwl   =     -2165.6563 
E_coul   =    210888.2623 E_long   =   -274207.6148 Press    =      -380.6339 
Volume   =    309705.6483 
---------------- Step      350 ----- CPU =     21.9670 (sec) ----------------
TotEng   =    -25140.2220 KinEng   =     21586.0337 Temp     =       301.0087 
PotEng   =    -46726.2558 E_bond   =      2580.5934 E_angle  =     10960.9493 
E_dihed  =      5250.2168 E_impro  =       209.3929 E_vdwl   =     -2022.8961 
E_coul   =    210519.6414 E_long   =   -274224.1535 Press    =      -315.7168 
Volume   =    309847.4865 
---------------- Step      400 ----- CPU =     25.0693 (sec) ----------------
TotEng   =    -25278.9107 KinEng   =     21443.3378 Temp     =       299.0188 
PotEng   =    -46722.2485 E_bond   =      2541.8215 E_angle  =     10923.9615 
E_dihed  =      5215.8232 E_impro  =       214.7426 E_vdwl   =     -2021.5149 
E_coul   =    210619.1264 E_long   =   -274216.2087 Press    =       229.3814 
Volume   =    309896.2070 
---------------- Step      450 ----- CPU =     28.2262 (sec) ----------------
TotEng   =    -25331.6187 KinEng   =     21472.7899 Temp     =       299.4295 
PotEng   =    -46804.4086 E_bond   =      2494.6225 E_angle  =     10917.0267 
E_dihed  =      5272.0853 E_impro  =       222.1605 E_vdwl   =     -2182.5702 
E_coul   =    210689.2668 E_long   =   -274217.0002 Press    =       138.3954 
Volume   =    309986.6791 
---------------- Step      500 ----- CPU =     31.3233 (sec) ----------------
TotEng   =    -25159.7425 KinEng   =     21507.8299 Temp     =       299.9182 
PotEng   =    -46667.5724 E_bond   =      2584.9554 E_angle  =     10922.1038 
E_dihed  =      5238.3776 E_impro  =       219.8311 E_vdwl   =     -2173.6290 
E_coul   =    210746.1293 E_long   =   -274205.3406 Press    =      -243.4527 
Volume   =    310024.4087 
---------------- Step      550 ----- CPU =     34.4219 (sec) ----------------
TotEng   =    -24933.8124 KinEng   =     21569.5611 Temp     =       300.7790 
PotEng   =    -46503.3735 E_bond   =      2545.0448 E_angle  =     10977.6954 
E_dihed  =      5191.1404 E_impro  =       234.6863 E_vdwl   =     -2102.4752 
E_coul   =    210866.4424 E_long   =   -274215.9076 Press    =       319.4101 
Volume   =    310048.8611 
---------------- Step      600 ----- CPU =     37.5783 (sec) ----------------
TotEng   =    -24851.6227 KinEng   =     21686.0669 Temp     =       302.4036 
PotEng   =    -46537.6896 E_bond   =      2516.4312 E_angle  =     11029.0292 
E_dihed  =      5293.8504 E_impro  =       229.5387 E_vdwl   =     -2058.4216 
E_coul   =    210669.0042 E_long   =   -274217.1217 Press    =       219.7857 
Volume   =    310163.4897 
---------------- Step      650 ----- CPU =     40.6799 (sec) ----------------
TotEng   =    -25068.0529 KinEng   =     21481.9577 Temp     =       299.5574 
PotEng   =    -46550.0105 E_bond   =      2546.6535 E_angle  =     10862.0275 
E_dihed  =      5276.3709 E_impro  =       213.0822 E_vdwl   =     -2145.1097 
E_coul   =    210907.7933 E_long   =   -274210.8282 Press    =      -192.8366 
Volume   =    310296.7962 
---------------- Step      700 ----- CPU =     43.8326 (sec) ----------------
TotEng   =    -25229.7279 KinEng   =     21514.9325 Temp     =       300.0172 
PotEng   =    -46744.6604 E_bond   =      2493.1300 E_angle  =     10957.0010 
E_dihed  =      5232.1748 E_impro  =       211.7011 E_vdwl   =     -2396.4401 
E_coul   =    210972.5459 E_long   =   -274214.7732 Press    =       111.3602 
Volume   =    310375.4589 
---------------- Step      750 ----- CPU =     46.9273 (sec) ----------------
TotEng   =    -25196.8229 KinEng   =     21355.6859 Temp     =       297.7966 
PotEng   =    -46552.5088 E_bond   =      2574.9131 E_angle  =     10955.4141 
E_dihed  =      5256.5756 E_impro  =       210.7998 E_vdwl   =     -2202.6443 
E_coul   =    210877.0173 E_long   =   -274224.5845 Press    =      -207.5074 
Volume   =    310266.5233 
---------------- Step      800 ----- CPU =     50.0211 (sec) ----------------
TotEng   =    -25005.9351 KinEng   =     21539.6005 Temp     =       300.3612 
PotEng   =    -46545.5356 E_bond   =      2529.2529 E_angle  =     11058.3495 
E_dihed  =      5254.8679 E_impro  =       221.9912 E_vdwl   =     -2228.0327 
E_coul   =    210825.5067 E_long   =   -274207.4712 Press    =      -232.8132 
Volume   =    310114.4311 
---------------- Step      850 ----- CPU =     53.1211 (sec) ----------------
TotEng   =    -24794.9646 KinEng   =     21633.5652 Temp     =       301.6715 
PotEng   =    -46428.5298 E_bond   =      2557.8929 E_angle  =     11022.7109 
E_dihed  =      5260.2755 E_impro  =       231.3464 E_vdwl   =     -1904.3784 
E_coul   =    210606.7408 E_long   =   -274203.1180 Press    =       565.2616 
Volume   =    309776.3128 
---------------- Step      900 ----- CPU =     56.2863 (sec) ----------------
TotEng   =    -24756.4089 KinEng   =     21583.2917 Temp     =       300.9705 
PotEng   =    -46339.7006 E_bond   =      2557.6126 E_angle  =     11021.7963 
E_dihed  =      5287.2163 E_impro  =       239.8766 E_vdwl   =     -1897.4909 
E_coul   =    210658.1593 E_long   =   -274206.8707 Press    =       252.8209 
Volume   =    309449.8445 
---------------- Step      950 ----- CPU =     59.3884 (sec) ----------------
TotEng   =    -24991.5787 KinEng   =     21531.9491 Temp     =       300.2545 
PotEng   =    -46523.5277 E_bond   =      2567.0228 E_angle  =     11046.9606 
E_dihed  =      5262.4992 E_impro  =       225.5037 E_vdwl   =     -1944.3276 
E_coul   =    210527.2959 E_long   =   -274208.4822 Press    =       -15.4485 
Volume   =    309365.8873 
---------------- Step     1000 ----- CPU =     62.4932 (sec) ----------------
TotEng   =    -25356.6849 KinEng   =     21365.5254 Temp     =       297.9338 
PotEng   =    -46722.2103 E_bond   =      2577.8773 E_angle  =     11061.4766 
E_dihed  =      5174.5122 E_impro  =       215.2557 E_vdwl   =     -2179.7273 
E_coul   =    210653.7297 E_long   =   -274225.3345 Press    =      -286.0532 
Volume   =    309338.6301 
---------------- Step     1050 ----- CPU =     65.5961 (sec) ----------------
TotEng   =    -25500.8117 KinEng   =     21289.8550 Temp     =       296.8786 
PotEng   =    -46790.6666 E_bond   =      2563.9777 E_angle  =     10886.8572 
E_dihed  =      5240.5899 E_impro  =       220.9662 E_vdwl   =     -1981.4008 
E_coul   =    210481.5621 E_long   =   -274203.2188 Press    =        21.8031 
Volume   =    309319.0034 
---------------- Step     1100 ----- CPU =     68.7572 (sec) ----------------
TotEng   =    -25223.9303 KinEng   =     21426.7086 Temp     =       298.7870 
PotEng   =    -46650.6389 E_bond   =      2583.0443 E_angle  =     10914.3446 
E_dihed  =      5247.0572 E_impro  =       239.5880 E_vdwl   =     -2159.2639 
E_coul   =    210738.4202 E_long   =   -274213.8293 Press    =       202.2233 
Volume   =    309320.5019 
---------------- Step     1150 ----- CPU =     71.8603 (sec) ----------------
TotEng   =    -24760.8681 KinEng   =     21591.1999 Temp     =       301.0807 
PotEng   =    -46352.0680 E_bond   =      2530.6792 E_angle  =     11054.0056 
E_dihed  =      5309.8724 E_impro  =       234.5272 E_vdwl   =     -2190.7511 
E_coul   =    210916.7775 E_long   =   -274207.1789 Press    =       207.5562 
Volume   =    309169.4133 
---------------- Step     1200 ----- CPU =     75.0236 (sec) ----------------
TotEng   =    -24579.9008 KinEng   =     21768.2974 Temp     =       303.5503 
PotEng   =    -46348.1983 E_bond   =      2641.4176 E_angle  =     10969.5396 
E_dihed  =      5312.9215 E_impro  =       214.6394 E_vdwl   =     -2060.3664 
E_coul   =    210777.3259 E_long   =   -274203.6760 Press    =       119.2623 
Volume   =    308989.9818 
---------------- Step     1250 ----- CPU =     78.1268 (sec) ----------------
TotEng   =    -24837.0483 KinEng   =     21612.1943 Temp     =       301.3735 
PotEng   =    -46449.2426 E_bond   =      2592.7989 E_angle  =     10997.4140 
E_dihed  =      5274.9580 E_impro  =       223.1760 E_vdwl   =     -2081.1319 
E_coul   =    210741.0935 E_long   =   -274197.5511 Press    =       280.7385 
Volume   =    309071.7778 
---------------- Step     1300 ----- CPU =     81.2871 (sec) ----------------
TotEng   =    -25251.7666 KinEng   =     21425.0666 Temp     =       298.7641 
PotEng   =    -46676.8332 E_bond   =      2556.7523 E_angle  =     10914.1809 
E_dihed  =      5261.6254 E_impro  =       229.6299 E_vdwl   =     -2164.0710 
E_coul   =    210728.9194 E_long   =   -274203.8702 Press    =      -413.4113 
Volume   =    309324.9144 
---------------- Step     1350 ----- CPU =     84.4525 (sec) ----------------
TotEng   =    -25429.8006 KinEng   =     21455.2669 Temp     =       299.1852 
PotEng   =    -46885.0675 E_bond   =      2575.9790 E_angle  =     10791.2915 
E_dihed  =      5234.3058 E_impro  =       220.3281 E_vdwl   =     -2194.2059 
E_coul   =    210702.5030 E_long   =   -274215.2690 Press    =      -430.7129 
Volume   =    309457.6145 
---------------- Step     1400 ----- CPU =     87.5535 (sec) ----------------
TotEng   =    -25274.3780 KinEng   =     21325.0336 Temp     =       297.3691 
PotEng   =    -46599.4116 E_bond   =      2536.4714 E_angle  =     11041.7906 
E_dihed  =      5257.5040 E_impro  =       217.3253 E_vdwl   =     -2171.6897 
E_coul   =    210729.3718 E_long   =   -274210.1849 Press    =       132.0438 
Volume   =    309455.2309 
---------------- Step     1450 ----- CPU =     90.6569 (sec) ----------------
TotEng   =    -24907.8299 KinEng   =     21553.6448 Temp     =       300.5570 
PotEng   =    -46461.4747 E_bond   =      2627.6792 E_angle  =     11081.6539 
E_dihed  =      5279.8396 E_impro  =       230.2560 E_vdwl   =     -2221.5538 
E_coul   =    210743.8218 E_long   =   -274203.1715 Press    =      -504.7090 
Volume   =    309310.3826 
---------------- Step     1500 ----- CPU =     93.8174 (sec) ----------------
TotEng   =    -24683.8621 KinEng   =     21735.4888 Temp     =       303.0928 
PotEng   =    -46419.3510 E_bond   =      2582.9101 E_angle  =     11112.4056 
E_dihed  =      5231.4893 E_impro  =       223.4274 E_vdwl   =     -2056.3613 
E_coul   =    210688.6915 E_long   =   -274201.9136 Press    =       148.6883 
Volume   =    309177.7295 
---------------- Step     1550 ----- CPU =     96.9168 (sec) ----------------
TotEng   =    -24857.0628 KinEng   =     21559.1170 Temp     =       300.6333 
PotEng   =    -46416.1798 E_bond   =      2577.9112 E_angle  =     11010.3381 
E_dihed  =      5245.6690 E_impro  =       227.1656 E_vdwl   =     -2127.5361 
E_coul   =    210859.8336 E_long   =   -274209.5614 Press    =       374.5933 
Volume   =    309151.9335 
---------------- Step     1600 ----- CPU =    100.0184 (sec) ----------------
TotEng   =    -25193.8636 KinEng   =     21285.8187 Temp     =       296.8223 
PotEng   =    -46479.6823 E_bond   =      2586.0014 E_angle  =     11083.5623 
E_dihed  =      5211.1299 E_impro  =       218.5641 E_vdwl   =     -2204.8674 
E_coul   =    210827.8862 E_long   =   -274201.9590 Press    =       -46.3763 
Volume   =    309163.0997 
---------------- Step     1650 ----- CPU =    103.1803 (sec) ----------------
TotEng   =    -25363.5624 KinEng   =     21380.6222 Temp     =       298.1443 
PotEng   =    -46744.1847 E_bond   =      2553.2263 E_angle  =     10966.0195 
E_dihed  =      5239.0727 E_impro  =       213.2050 E_vdwl   =     -2153.1067 
E_coul   =    210648.8666 E_long   =   -274211.4681 Press    =       -90.1802 
Volume   =    309041.9284 
---------------- Step     1700 ----- CPU =    106.2848 (sec) ----------------
TotEng   =    -25272.8091 KinEng   =     21336.0531 Temp     =       297.5228 
PotEng   =    -46608.8623 E_bond   =      2556.4901 E_angle  =     11023.7519 
E_dihed  =      5280.2431 E_impro  =       246.1241 E_vdwl   =     -2088.3894 
E_coul   =    210576.9347 E_long   =   -274204.0166 Press    =       229.7889 
Volume   =    308861.7452 
---------------- Step     1750 ----- CPU =    109.4490 (sec) ----------------
TotEng   =    -25040.8362 KinEng   =     21578.6431 Temp     =       300.9056 
PotEng   =    -46619.4793 E_bond   =      2563.3485 E_angle  =     10996.9553 
E_dihed  =      5262.9526 E_impro  =       217.0591 E_vdwl   =     -2015.2205 
E_coul   =    210560.4068 E_long   =   -274204.9810 Press    =        80.7016 
Volume   =    308779.6015 
---------------- Step     1800 ----- CPU =    112.5528 (sec) ----------------
TotEng   =    -24840.0779 KinEng   =     21669.6278 Temp     =       302.1744 
PotEng   =    -46509.7056 E_bond   =      2523.0106 E_angle  =     11040.5631 
E_dihed  =      5269.4232 E_impro  =       236.3659 E_vdwl   =     -1888.4580 
E_coul   =    210499.7801 E_long   =   -274190.3905 Press    =       370.1936 
Volume   =    308891.5917 
---------------- Step     1850 ----- CPU =    115.7141 (sec) ----------------
TotEng   =    -25011.0308 KinEng   =     21643.1225 Temp     =       301.8048 
PotEng   =    -46654.1533 E_bond   =      2570.0607 E_angle  =     11001.0363 
E_dihed  =      5214.5821 E_impro  =       216.3805 E_vdwl   =     -2048.8537 
E_coul   =    210593.3381 E_long   =   -274200.6973 Press    =      -102.1768 
Volume   =    309153.6934 
---------------- Step     1900 ----- CPU =    118.8210 (sec) ----------------
TotEng   =    -25310.1159 KinEng   =     21520.7745 Temp     =       300.0987 
PotEng   =    -46830.8904 E_bond   =      2573.7218 E_angle  =     10982.1572 
E_dihed  =      5249.1730 E_impro  =       205.0122 E_vdwl   =     -2151.6356 
E_coul   =    210517.9440 E_long   =   -274207.2630 Press    =      -137.6808 
Volume   =    309392.0367 
---------------- Step     1950 ----- CPU =    121.9871 (sec) ----------------
TotEng   =    -25392.0188 KinEng   =     21327.4402 Temp     =       297.4027 
PotEng   =    -46719.4590 E_bond   =      2502.9982 E_angle  =     11010.7688 
E_dihed  =      5306.6651 E_impro  =       211.9544 E_vdwl   =     -2060.7397 
E_coul   =    210527.6817 E_long   =   -274218.7876 Press    =       132.5179 
Volume   =    309600.7634 
---------------- Step     2000 ----- CPU =    125.1460 (sec) ----------------
TotEng   =    -25173.5455 KinEng   =     21466.6899 Temp     =       299.3445 
PotEng   =    -46640.2354 E_bond   =      2596.6287 E_angle  =     11018.7814 
E_dihed  =      5238.6009 E_impro  =       231.8202 E_vdwl   =     -2136.8342 
E_coul   =    210624.2811 E_long   =   -274213.5134 Press    =      -440.2158 
Volume   =    309679.7970 
---------------- Step     2050 ----- CPU =    128.2510 (sec) ----------------
TotEng   =    -24856.8478 KinEng   =     21439.3726 Temp     =       298.9636 
PotEng   =    -46296.2204 E_bond   =      2646.6837 E_angle  =     11112.7465 
E_dihed  =      5299.3270 E_impro  =       218.3357 E_vdwl   =     -1957.2740 
E_coul   =    210588.0272 E_long   =   -274204.0666 Press    =      -268.4001 
Volume   =    309568.3639 
---------------- Step     2100 ----- CPU =    131.3528 (sec) ----------------
TotEng   =    -24745.4867 KinEng   =     21704.0578 Temp     =       302.6545 
PotEng   =    -46449.5445 E_bond   =      2551.4880 E_angle  =     11180.1023 
E_dihed  =      5242.6941 E_impro  =       221.0677 E_vdwl   =     -1825.1813 
E_coul   =    210402.9107 E_long   =   -274222.6261 Press    =       275.7480 
Volume   =    309427.7660 
---------------- Step     2150 ----- CPU =    134.5158 (sec) ----------------
TotEng   =    -25092.9219 KinEng   =     21451.8250 Temp     =       299.1372 
PotEng   =    -46544.7469 E_bond   =      2624.5220 E_angle  =     11003.7654 
E_dihed  =      5266.6982 E_impro  =       232.1421 E_vdwl   =     -2205.1141 
E_coul   =    210752.6415 E_long   =   -274219.4021 Press    =      -635.6072 
Volume   =    309411.5747 
---------------- Step     2200 ----- CPU =    137.6175 (sec) ----------------
TotEng   =    -25450.3409 KinEng   =     21314.6872 Temp     =       297.2249 
PotEng   =    -46765.0281 E_bond   =      2549.3693 E_angle  =     11002.9136 
E_dihed  =      5267.8892 E_impro  =       219.3437 E_vdwl   =     -2237.8339 
E_coul   =    210635.3804 E_long   =   -274202.0905 Press    =      -222.8142 
Volume   =    309373.5862 
---------------- Step     2250 ----- CPU =    140.7230 (sec) ----------------
TotEng   =    -25523.3969 KinEng   =     21334.1748 Temp     =       297.4966 
PotEng   =    -46857.5717 E_bond   =      2559.4541 E_angle  =     10898.9180 
E_dihed  =      5285.7425 E_impro  =       226.1730 E_vdwl   =     -2133.1707 
E_coul   =    210526.8814 E_long   =   -274221.5701 Press    =       -30.7144 
Volume   =    309200.8207 
---------------- Step     2300 ----- CPU =    143.8853 (sec) ----------------
TotEng   =    -25249.2087 KinEng   =     21637.7802 Temp     =       301.7303 
PotEng   =    -46886.9889 E_bond   =      2591.3524 E_angle  =     10919.9743 
E_dihed  =      5236.6040 E_impro  =       212.1276 E_vdwl   =     -2252.7703 
E_coul   =    210618.4401 E_long   =   -274212.7170 Press    =      -300.7890 
Volume   =    308962.2881 
---------------- Step     2350 ----- CPU =    146.9947 (sec) ----------------
TotEng   =    -24994.6998 KinEng   =     21640.3882 Temp     =       301.7666 
PotEng   =    -46635.0880 E_bond   =      2626.5071 E_angle  =     11027.0311 
E_dihed  =      5191.9880 E_impro  =       238.0067 E_vdwl   =     -1938.3647 
E_coul   =    210432.9356 E_long   =   -274213.1917 Press    =       -44.4151 
Volume   =    308741.4193 
---------------- Step     2400 ----- CPU =    150.1056 (sec) ----------------
TotEng   =    -25001.6320 KinEng   =     21644.8809 Temp     =       301.8293 
PotEng   =    -46646.5129 E_bond   =      2620.0825 E_angle  =     10927.3411 
E_dihed  =      5229.2078 E_impro  =       227.8201 E_vdwl   =     -1991.6472 
E_coul   =    210552.0290 E_long   =   -274211.3463 Press    =       184.4102 
Volume   =    308756.3400 
---------------- Step     2450 ----- CPU =    153.2711 (sec) ----------------
TotEng   =    -25253.8942 KinEng   =     21640.9673 Temp     =       301.7747 
PotEng   =    -46894.8615 E_bond   =      2572.5492 E_angle  =     10928.6946 
E_dihed  =      5233.5293 E_impro  =       212.2068 E_vdwl   =     -2207.9107 
E_coul   =    210569.5202 E_long   =   -274203.4509 Press    =      -243.1456 
Volume   =    308908.8252 
---------------- Step     2500 ----- CPU =    156.3788 (sec) ----------------
TotEng   =    -25533.4586 KinEng   =     21276.6059 Temp     =       296.6938 
PotEng   =    -46810.0645 E_bond   =      2538.2672 E_angle  =     10946.8187 
E_dihed  =      5268.0358 E_impro  =       224.7486 E_vdwl   =     -1936.6026 
E_coul   =    210358.7521 E_long   =   -274210.0844 Press    =        13.9383 
Volume   =    308973.9298 
---------------- Step     2550 ----- CPU =    159.5433 (sec) ----------------
TotEng   =    -25563.8333 KinEng   =     21380.1532 Temp     =       298.1378 
PotEng   =    -46943.9864 E_bond   =      2526.6513 E_angle  =     10847.9497 
E_dihed  =      5193.3702 E_impro  =       211.9338 E_vdwl   =     -2194.7961 
E_coul   =    210680.6177 E_long   =   -274209.7130 Press    =      -211.0681 
Volume   =    309017.7102 
---------------- Step     2600 ----- CPU =    162.6514 (sec) ----------------
TotEng   =    -25209.0712 KinEng   =     21570.1932 Temp     =       300.7878 
PotEng   =    -46779.2644 E_bond   =      2584.9659 E_angle  =     10970.4059 
E_dihed  =      5234.5422 E_impro  =       226.7247 E_vdwl   =     -1940.7800 
E_coul   =    210350.1481 E_long   =   -274205.2711 Press    =       166.3856 
Volume   =    308990.0515 
---------------- Step     2650 ----- CPU =    165.7608 (sec) ----------------
TotEng   =    -24813.5020 KinEng   =     21759.9917 Temp     =       303.4345 
PotEng   =    -46573.4937 E_bond   =      2560.0486 E_angle  =     11040.2145 
E_dihed  =      5222.3270 E_impro  =       227.1513 E_vdwl   =     -2207.4313 
E_coul   =    210793.2916 E_long   =   -274209.0954 Press    =      -248.2085 
Volume   =    309020.2662 
---------------- Step     2700 ----- CPU =    168.8642 (sec) ----------------
TotEng   =    -24630.0013 KinEng   =     21639.7197 Temp     =       301.7573 
PotEng   =    -46269.7210 E_bond   =      2650.2776 E_angle  =     11049.9363 
E_dihed  =      5292.0745 E_impro  =       228.3737 E_vdwl   =     -2188.3146 
E_coul   =    210903.1622 E_long   =   -274205.2309 Press    =      -188.1577 
Volume   =    308831.7760 
---------------- Step     2750 ----- CPU =    172.0285 (sec) ----------------
TotEng   =    -24829.7154 KinEng   =     21481.8446 Temp     =       299.5558 
PotEng   =    -46311.5600 E_bond   =      2525.6315 E_angle  =     11218.2984 
E_dihed  =      5277.0892 E_impro  =       221.0430 E_vdwl   =     -2222.5810 
E_coul   =    210875.5073 E_long   =   -274206.5483 Press    =       210.2292 
Volume   =    308643.8773 
---------------- Step     2800 ----- CPU =    175.1351 (sec) ----------------
TotEng   =    -25200.7944 KinEng   =     21393.3261 Temp     =       298.3215 
PotEng   =    -46594.1205 E_bond   =      2516.2939 E_angle  =     11001.2506 
E_dihed  =      5319.7588 E_impro  =       221.1624 E_vdwl   =     -2163.8134 
E_coul   =    210720.9580 E_long   =   -274209.7309 Press    =        58.7073 
Volume   =    308333.3839 
---------------- Step     2850 ----- CPU =    178.2468 (sec) ----------------
TotEng   =    -25476.6002 KinEng   =     21520.0645 Temp     =       300.0888 
PotEng   =    -46996.6647 E_bond   =      2531.0366 E_angle  =     10824.1062 
E_dihed  =      5282.4267 E_impro  =       225.9351 E_vdwl   =     -2117.6327 
E_coul   =    210463.2385 E_long   =   -274205.7751 Press    =       -14.0804 
Volume   =    308080.2896 
---------------- Step     2900 ----- CPU =    181.3610 (sec) ----------------
TotEng   =    -25515.9274 KinEng   =     21436.3669 Temp     =       298.9216 
PotEng   =    -46952.2944 E_bond   =      2581.8424 E_angle  =     10767.5332 
E_dihed  =      5245.2917 E_impro  =       236.2765 E_vdwl   =     -2111.6724 
E_coul   =    210526.8640 E_long   =   -274198.4297 Press    =       -53.4194 
Volume   =    307992.3143 
---------------- Step     2950 ----- CPU =    184.5312 (sec) ----------------
TotEng   =    -25356.1254 KinEng   =     21390.1699 Temp     =       298.2774 
PotEng   =    -46746.2952 E_bond   =      2564.9453 E_angle  =     11037.2303 
E_dihed  =      5266.8455 E_impro  =       209.8357 E_vdwl   =     -2105.5402 
E_coul   =    210478.8149 E_long   =   -274198.4268 Press    =       144.8197 
Volume   =    308036.2708 
---------------- Step     3000 ----- CPU =    187.6460 (sec) ----------------
TotEng   =    -25147.3966 KinEng   =     21608.2368 Temp     =       301.3183 
PotEng   =    -46755.6335 E_bond   =      2543.0076 E_angle  =     11061.8880 
E_dihed  =      5272.2193 E_impro  =       216.1913 E_vdwl   =     -2058.6813 
E_coul   =    210421.9846 E_long   =   -274212.2429 Press    =       -87.4019 
Volume   =    308201.9702 
---------------- Step     3050 ----- CPU =    190.7556 (sec) ----------------
TotEng   =    -25127.7879 KinEng   =     21606.6340 Temp     =       301.2959 
PotEng   =    -46734.4219 E_bond   =      2542.0481 E_angle  =     11067.0525 
E_dihed  =      5276.9416 E_impro  =       221.1684 E_vdwl   =     -1998.8024 
E_coul   =    210369.3103 E_long   =   -274212.1405 Press    =      -126.1754 
Volume   =    308438.8432 
---------------- Step     3100 ----- CPU =    193.8654 (sec) ----------------
TotEng   =    -25241.6960 KinEng   =     21368.0338 Temp     =       297.9688 
PotEng   =    -46609.7298 E_bond   =      2592.7728 E_angle  =     11092.1957 
E_dihed  =      5229.9844 E_impro  =       208.3452 E_vdwl   =     -2234.8847 
E_coul   =    210706.6447 E_long   =   -274204.7879 Press    =      -225.5552 
Volume   =    308707.5540 
---------------- Step     3150 ----- CPU =    197.0332 (sec) ----------------
TotEng   =    -25220.6000 KinEng   =     21606.7689 Temp     =       301.2978 
PotEng   =    -46827.3689 E_bond   =      2555.4051 E_angle  =     10868.0286 
E_dihed  =      5206.4112 E_impro  =       210.7070 E_vdwl   =     -2164.3077 
E_coul   =    210711.7543 E_long   =   -274215.3674 Press    =       163.4200 
Volume   =    308806.3985 
---------------- Step     3200 ----- CPU =    200.1393 (sec) ----------------
TotEng   =    -25111.5752 KinEng   =     21395.2070 Temp     =       298.3477 
PotEng   =    -46506.7822 E_bond   =      2576.2289 E_angle  =     11061.5122 
E_dihed  =      5288.1866 E_impro  =       229.4741 E_vdwl   =     -2101.5997 
E_coul   =    210649.9869 E_long   =   -274210.5712 Press    =      -132.1026 
Volume   =    308906.9412 
---------------- Step     3250 ----- CPU =    203.2452 (sec) ----------------
TotEng   =    -24977.3155 KinEng   =     21599.0807 Temp     =       301.1906 
PotEng   =    -46576.3962 E_bond   =      2525.0517 E_angle  =     11105.2496 
E_dihed  =      5284.9858 E_impro  =       203.7020 E_vdwl   =     -2001.1162 
E_coul   =    210520.7368 E_long   =   -274215.0059 Press    =       277.9426 
Volume   =    308837.1329 
---------------- Step     3300 ----- CPU =    206.3530 (sec) ----------------
TotEng   =    -25023.8180 KinEng   =     21646.0482 Temp     =       301.8456 
PotEng   =    -46669.8662 E_bond   =      2571.8519 E_angle  =     11094.3254 
E_dihed  =      5282.4523 E_impro  =       229.8658 E_vdwl   =     -2050.0063 
E_coul   =    210408.4229 E_long   =   -274206.7782 Press    =      -363.6752 
Volume   =    308718.6784 
---------------- Step     3350 ----- CPU =    209.5218 (sec) ----------------
TotEng   =    -25249.8541 KinEng   =     21517.1169 Temp     =       300.0477 
PotEng   =    -46766.9710 E_bond   =      2608.9160 E_angle  =     10885.4725 
E_dihed  =      5284.8628 E_impro  =       229.5432 E_vdwl   =     -2061.4011 
E_coul   =    210499.8445 E_long   =   -274214.2089 Press    =       -85.5724 
Volume   =    308468.6041 
---------------- Step     3400 ----- CPU =    212.6331 (sec) ----------------
TotEng   =    -25411.3870 KinEng   =     21220.7496 Temp     =       295.9149 
PotEng   =    -46632.1366 E_bond   =      2573.7933 E_angle  =     10971.1071 
E_dihed  =      5255.9919 E_impro  =       239.7618 E_vdwl   =     -2104.4468 
E_coul   =    210637.2223 E_long   =   -274205.5661 Press    =        79.6598 
Volume   =    308273.3033 
---------------- Step     3450 ----- CPU =    215.7424 (sec) ----------------
TotEng   =    -25321.9106 KinEng   =     21509.0741 Temp     =       299.9355 
PotEng   =    -46830.9846 E_bond   =      2556.3781 E_angle  =     11021.2644 
E_dihed  =      5233.4819 E_impro  =       242.3590 E_vdwl   =     -2061.8307 
E_coul   =    210389.4882 E_long   =   -274212.1255 Press    =       299.0094 
Volume   =    308011.6338 
---------------- Step     3500 ----- CPU =    218.9153 (sec) ----------------
TotEng   =    -25149.0294 KinEng   =     21538.4189 Temp     =       300.3447 
PotEng   =    -46687.4483 E_bond   =      2552.8562 E_angle  =     11116.2797 
E_dihed  =      5219.0437 E_impro  =       224.9326 E_vdwl   =     -1980.2146 
E_coul   =    210397.3242 E_long   =   -274217.6701 Press    =       -99.3315 
Volume   =    307872.4097 
---------------- Step     3550 ----- CPU =    222.0340 (sec) ----------------
TotEng   =    -24951.3398 KinEng   =     21669.5399 Temp     =       302.1731 
PotEng   =    -46620.8797 E_bond   =      2591.9830 E_angle  =     11153.6917 
E_dihed  =      5259.6736 E_impro  =       237.5058 E_vdwl   =     -2340.6525 
E_coul   =    210690.6703 E_long   =   -274213.7515 Press    =      -427.0999 
Volume   =    307799.6645 
---------------- Step     3600 ----- CPU =    225.1508 (sec) ----------------
TotEng   =    -24987.7024 KinEng   =     21483.2148 Temp     =       299.5749 
PotEng   =    -46470.9172 E_bond   =      2562.0993 E_angle  =     11171.2093 
E_dihed  =      5325.7528 E_impro  =       226.8194 E_vdwl   =     -2126.1075 
E_coul   =    210592.3786 E_long   =   -274223.0692 Press    =       -76.4793 
Volume   =    307631.3956 
---------------- Step     3650 ----- CPU =    228.3289 (sec) ----------------
TotEng   =    -25119.0900 KinEng   =     21536.8729 Temp     =       300.3232 
PotEng   =    -46655.9629 E_bond   =      2617.3093 E_angle  =     11104.3121 
E_dihed  =      5237.2023 E_impro  =       221.6925 E_vdwl   =     -2231.8033 
E_coul   =    210618.5690 E_long   =   -274223.2448 Press    =       163.2391 
Volume   =    307646.5378 
---------------- Step     3700 ----- CPU =    231.4468 (sec) ----------------
TotEng   =    -25258.1410 KinEng   =     21614.7139 Temp     =       301.4086 
PotEng   =    -46872.8549 E_bond   =      2535.4172 E_angle  =     10924.4413 
E_dihed  =      5286.4307 E_impro  =       239.2711 E_vdwl   =     -1983.5393 
E_coul   =    210349.1089 E_long   =   -274223.9848 Press    =       189.6410 
Volume   =    307840.6609 
---------------- Step     3750 ----- CPU =    234.5629 (sec) ----------------
TotEng   =    -25320.5059 KinEng   =     21423.8606 Temp     =       298.7472 
PotEng   =    -46744.3666 E_bond   =      2533.9505 E_angle  =     11056.6476 
E_dihed  =      5252.8717 E_impro  =       228.3430 E_vdwl   =     -2125.6917 
E_coul   =    210530.2399 E_long   =   -274220.7274 Press    =       265.0262 
Volume   =    308071.8911 
---------------- Step     3800 ----- CPU =    237.7384 (sec) ----------------
TotEng   =    -25289.1278 KinEng   =     21417.3333 Temp     =       298.6562 
PotEng   =    -46706.4612 E_bond   =      2585.6694 E_angle  =     11041.9984 
E_dihed  =      5276.1163 E_impro  =       225.8369 E_vdwl   =     -2082.3822 
E_coul   =    210448.2018 E_long   =   -274201.9017 Press    =      -267.5270 
Volume   =    308370.2926 
---------------- Step     3850 ----- CPU =    240.8555 (sec) ----------------
TotEng   =    -25164.7518 KinEng   =     21391.9106 Temp     =       298.3017 
PotEng   =    -46556.6624 E_bond   =      2581.1086 E_angle  =     11152.3312 
E_dihed  =      5284.4771 E_impro  =       219.2610 E_vdwl   =     -2168.6672 
E_coul   =    210578.3333 E_long   =   -274203.5063 Press    =      -259.1523 
Volume   =    308658.3855 
---------------- Step     3900 ----- CPU =    243.9641 (sec) ----------------
TotEng   =    -25057.4465 KinEng   =     21437.3663 Temp     =       298.9356 
PotEng   =    -46494.8129 E_bond   =      2584.5385 E_angle  =     11016.4794 
E_dihed  =      5255.7819 E_impro  =       222.7304 E_vdwl   =     -2234.7206 
E_coul   =    210881.4732 E_long   =   -274221.0958 Press    =      -109.1911 
Volume   =    308907.8002 
---------------- Step     3950 ----- CPU =    247.1327 (sec) ----------------
TotEng   =    -24981.9735 KinEng   =     21687.1051 Temp     =       302.4181 
PotEng   =    -46669.0787 E_bond   =      2573.9713 E_angle  =     11062.4961 
E_dihed  =      5258.7267 E_impro  =       220.7419 E_vdwl   =     -2190.4393 
E_coul   =    210611.9503 E_long   =   -274206.5257 Press    =      -138.6463 
Volume   =    308898.6773 
---------------- Step     4000 ----- CPU =    250.2399 (sec) ----------------
TotEng   =    -25202.1294 KinEng   =     21594.2371 Temp     =       301.1231 
PotEng   =    -46796.3665 E_bond   =      2590.4545 E_angle  =     10998.1482 
E_dihed  =      5199.2138 E_impro  =       233.1730 E_vdwl   =     -2071.6271 
E_coul   =    210479.3834 E_long   =   -274225.1123 Press    =       114.3360 
Volume   =    308842.9280 
---------------- Step     4050 ----- CPU =    253.4081 (sec) ----------------
TotEng   =    -25465.8693 KinEng   =     21276.2028 Temp     =       296.6882 
PotEng   =    -46742.0722 E_bond   =      2594.0756 E_angle  =     11042.4522 
E_dihed  =      5235.6094 E_impro  =       216.2998 E_vdwl   =     -2002.4363 
E_coul   =    210384.0321 E_long   =   -274212.1050 Press    =       121.9914 
Volume   =    308846.2626 
---------------- Step     4100 ----- CPU =    256.5187 (sec) ----------------
TotEng   =    -25522.1972 KinEng   =     21303.0323 Temp     =       297.0623 
PotEng   =    -46825.2295 E_bond   =      2549.3103 E_angle  =     11022.6613 
E_dihed  =      5281.0991 E_impro  =       225.3509 E_vdwl   =     -1944.3616 
E_coul   =    210239.8986 E_long   =   -274199.1882 Press    =        75.0487 
Volume   =    308771.2950 
---------------- Step     4150 ----- CPU =    259.6254 (sec) ----------------
TotEng   =    -25414.9304 KinEng   =     21305.8565 Temp     =       297.1017 
PotEng   =    -46720.7868 E_bond   =      2581.8727 E_angle  =     11055.3302 
E_dihed  =      5249.5175 E_impro  =       220.4031 E_vdwl   =     -2098.5096 
E_coul   =    210463.3389 E_long   =   -274192.7397 Press    =       -84.7045 
Volume   =    308677.2120 
---------------- Step     4200 ----- CPU =    262.7890 (sec) ----------------
TotEng   =    -25187.7565 KinEng   =     21636.5864 Temp     =       301.7136 
PotEng   =    -46824.3429 E_bond   =      2560.1987 E_angle  =     11072.2376 
E_dihed  =      5239.8985 E_impro  =       229.6463 E_vdwl   =     -2180.3089 
E_coul   =    210454.1548 E_long   =   -274200.1700 Press    =        90.1666 
Volume   =    308594.7171 
---------------- Step     4250 ----- CPU =    265.8963 (sec) ----------------
TotEng   =    -25048.5610 KinEng   =     21561.8637 Temp     =       300.6716 
PotEng   =    -46610.4247 E_bond   =      2570.8119 E_angle  =     11106.9120 
E_dihed  =      5264.5255 E_impro  =       222.7741 E_vdwl   =     -2279.4194 
E_coul   =    210711.8740 E_long   =   -274207.9029 Press    =      -411.2065 
Volume   =    308646.7794 
---------------- Step     4300 ----- CPU =    269.0640 (sec) ----------------
TotEng   =    -25041.5042 KinEng   =     21680.3769 Temp     =       302.3243 
PotEng   =    -46721.8812 E_bond   =      2525.3220 E_angle  =     11022.3002 
E_dihed  =      5206.7000 E_impro  =       212.0879 E_vdwl   =     -2126.7206 
E_coul   =    210652.9518 E_long   =   -274214.5225 Press    =       221.5791 
Volume   =    308709.6885 
---------------- Step     4350 ----- CPU =    272.1725 (sec) ----------------
TotEng   =    -25151.3557 KinEng   =     21588.1944 Temp     =       301.0388 
PotEng   =    -46739.5501 E_bond   =      2538.4941 E_angle  =     11055.6372 
E_dihed  =      5237.7264 E_impro  =       217.6061 E_vdwl   =     -1981.2169 
E_coul   =    210405.1246 E_long   =   -274212.9217 Press    =       295.6341 
Volume   =    308655.9522 
---------------- Step     4400 ----- CPU =    275.3394 (sec) ----------------
TotEng   =    -25338.4971 KinEng   =     21428.4424 Temp     =       298.8111 
PotEng   =    -46766.9395 E_bond   =      2547.3361 E_angle  =     10920.9492 
E_dihed  =      5311.5451 E_impro  =       215.2771 E_vdwl   =     -2033.9463 
E_coul   =    210479.0807 E_long   =   -274207.1814 Press    =      -245.3667 
Volume   =    308692.3190 
---------------- Step     4450 ----- CPU =    278.4480 (sec) ----------------
TotEng   =    -25354.5071 KinEng   =     21355.7277 Temp     =       297.7972 
PotEng   =    -46710.2348 E_bond   =      2563.3554 E_angle  =     10986.8884 
E_dihed  =      5296.0022 E_impro  =       206.9410 E_vdwl   =     -2059.8707 
E_coul   =    210498.4623 E_long   =   -274202.0134 Press    =       -82.8478 
Volume   =    308768.8068 
---------------- Step     4500 ----- CPU =    281.5606 (sec) ----------------
TotEng   =    -25231.2016 KinEng   =     21485.6415 Temp     =       299.6088 
PotEng   =    -46716.8431 E_bond   =      2662.8782 E_angle  =     11070.0403 
E_dihed  =      5233.8908 E_impro  =       211.9100 E_vdwl   =     -2349.3992 
E_coul   =    210657.5440 E_long   =   -274203.7073 Press    =      -550.4383 
Volume   =    308783.5645 
---------------- Step     4550 ----- CPU =    284.7267 (sec) ----------------
TotEng   =    -25058.7831 KinEng   =     21516.7451 Temp     =       300.0425 
PotEng   =    -46575.5282 E_bond   =      2540.9812 E_angle  =     11118.4283 
E_dihed  =      5332.1338 E_impro  =       206.7405 E_vdwl   =     -2198.1637 
E_coul   =    210619.4295 E_long   =   -274195.0778 Press    =       -39.5177 
Volume   =    308679.9321 
---------------- Step     4600 ----- CPU =    287.8351 (sec) ----------------
TotEng   =    -24953.7246 KinEng   =     21743.1642 Temp     =       303.1998 
PotEng   =    -46696.8888 E_bond   =      2504.4350 E_angle  =     10943.4256 
E_dihed  =      5249.3171 E_impro  =       229.2058 E_vdwl   =     -2052.8682 
E_coul   =    210633.7980 E_long   =   -274204.2021 Press    =        11.0566 
Volume   =    308516.9425 
---------------- Step     4650 ----- CPU =    291.0058 (sec) ----------------
TotEng   =    -25031.8926 KinEng   =     21553.1176 Temp     =       300.5497 
PotEng   =    -46585.0102 E_bond   =      2502.3528 E_angle  =     11033.1142 
E_dihed  =      5321.0635 E_impro  =       233.2909 E_vdwl   =     -2092.4212 
E_coul   =    210618.3050 E_long   =   -274200.7153 Press    =       238.1264 
Volume   =    308268.0323 
---------------- Step     4700 ----- CPU =    294.1168 (sec) ----------------
TotEng   =    -25203.0034 KinEng   =     21600.4056 Temp     =       301.2091 
PotEng   =    -46803.4090 E_bond   =      2580.3148 E_angle  =     11009.2558 
E_dihed  =      5159.9351 E_impro  =       234.2694 E_vdwl   =     -2198.6419 
E_coul   =    210609.1565 E_long   =   -274197.6988 Press    =       215.4777 
Volume   =    308228.1639 
---------------- Step     4750 ----- CPU =    297.2284 (sec) ----------------
TotEng   =    -25438.4885 KinEng   =     21346.8028 Temp     =       297.6727 
PotEng   =    -46785.2914 E_bond   =      2587.2748 E_angle  =     10909.7593 
E_dihed  =      5266.9632 E_impro  =       229.5853 E_vdwl   =     -1982.4632 
E_coul   =    210418.0413 E_long   =   -274214.4520 Press    =       119.0650 
Volume   =    308219.7469 
---------------- Step     4800 ----- CPU =    300.3984 (sec) ----------------
TotEng   =    -25488.5317 KinEng   =     21451.1336 Temp     =       299.1276 
PotEng   =    -46939.6653 E_bond   =      2533.0070 E_angle  =     10860.9575 
E_dihed  =      5329.9099 E_impro  =       207.8348 E_vdwl   =     -2147.9419 
E_coul   =    210483.2815 E_long   =   -274206.7141 Press    =        -7.4146 
Volume   =    308305.4103 
---------------- Step     4850 ----- CPU =    303.5094 (sec) ----------------
TotEng   =    -25303.0875 KinEng   =     21386.4234 Temp     =       298.2252 
PotEng   =    -46689.5109 E_bond   =      2582.1067 E_angle  =     11097.9682 
E_dihed  =      5299.2499 E_impro  =       226.5082 E_vdwl   =     -2264.0241 
E_coul   =    210572.2301 E_long   =   -274203.5498 Press    =       -80.5435 
Volume   =    308333.3125 
---------------- Step     4900 ----- CPU =    306.6175 (sec) ----------------
TotEng   =    -25098.6496 KinEng   =     21535.1345 Temp     =       300.2989 
PotEng   =    -46633.7841 E_bond   =      2601.3003 E_angle  =     11084.6234 
E_dihed  =      5288.9247 E_impro  =       222.4490 E_vdwl   =     -2067.7603 
E_coul   =    210441.5888 E_long   =   -274204.9101 Press    =      -195.2711 
Volume   =    308360.7977 
---------------- Step     4950 ----- CPU =    309.7848 (sec) ----------------
TotEng   =    -25023.7398 KinEng   =     21613.6132 Temp     =       301.3933 
PotEng   =    -46637.3530 E_bond   =      2541.0975 E_angle  =     11043.0966 
E_dihed  =      5275.6134 E_impro  =       238.9106 E_vdwl   =     -2117.1192 
E_coul   =    210591.2898 E_long   =   -274210.2417 Press    =       172.8283 
Volume   =    308348.2810 
---------------- Step     5000 ----- CPU =    312.9546 (sec) ----------------
TotEng   =    -25086.8424 KinEng   =     21584.8499 Temp     =       300.9922 
PotEng   =    -46671.6923 E_bond   =      2540.8384 E_angle  =     11049.6996 
E_dihed  =      5293.0503 E_impro  =       226.0682 E_vdwl   =     -2091.2298 
E_coul   =    210518.7223 E_long   =   -274208.8413 Press    =         4.3066 
Volume   =    308443.3824 
---------------- Step     5050 ----- CPU =    316.0593 (sec) ----------------
TotEng   =    -25177.2160 KinEng   =     21594.7234 Temp     =       301.1299 
PotEng   =    -46771.9394 E_bond   =      2571.7269 E_angle  =     10940.9782 
E_dihed  =      5249.4312 E_impro  =       205.0520 E_vdwl   =     -1817.2175 
E_coul   =    210291.6974 E_long   =   -274213.6076 Press    =       297.7488 
Volume   =    308809.7566 
---------------- Step     5100 ----- CPU =    319.2231 (sec) ----------------
TotEng   =    -25239.3990 KinEng   =     21355.4498 Temp     =       297.7933 
PotEng   =    -46594.8487 E_bond   =      2618.0321 E_angle  =     10962.4922 
E_dihed  =      5247.8237 E_impro  =       223.9609 E_vdwl   =     -1943.9121 
E_coul   =    210505.8685 E_long   =   -274209.1140 Press    =       272.2373 
Volume   =    309160.7640 
---------------- Step     5150 ----- CPU =    322.3249 (sec) ----------------
TotEng   =    -25202.1857 KinEng   =     21527.7399 Temp     =       300.1958 
PotEng   =    -46729.9255 E_bond   =      2589.6704 E_angle  =     10899.6913 
E_dihed  =      5261.1008 E_impro  =       210.4316 E_vdwl   =     -1937.4483 
E_coul   =    210445.3353 E_long   =   -274198.7067 Press    =       262.9209 
Volume   =    309530.3908 
---------------- Step     5200 ----- CPU =    325.4809 (sec) ----------------
TotEng   =    -25173.3281 KinEng   =     21600.8659 Temp     =       301.2155 
PotEng   =    -46774.1940 E_bond   =      2535.1560 E_angle  =     10995.8560 
E_dihed  =      5303.4455 E_impro  =       211.8234 E_vdwl   =     -2124.4896 
E_coul   =    210517.3638 E_long   =   -274213.3491 Press    =       -70.0720 
Volume   =    309937.6393 
---------------- Step     5250 ----- CPU =    328.6351 (sec) ----------------
TotEng   =    -25091.3032 KinEng   =     21444.2449 Temp     =       299.0315 
PotEng   =    -46535.5481 E_bond   =      2628.5856 E_angle  =     11069.7471 
E_dihed  =      5287.7864 E_impro  =       211.9800 E_vdwl   =     -2185.6782 
E_coul   =    210645.4050 E_long   =   -274193.3740 Press    =      -355.2969 
Volume   =    310039.6468 
---------------- Step     5300 ----- CPU =    331.7314 (sec) ----------------
TotEng   =    -25022.0513 KinEng   =     21503.6155 Temp     =       299.8594 
PotEng   =    -46525.6668 E_bond   =      2643.0246 E_angle  =     11034.9851 
E_dihed  =      5269.4006 E_impro  =       222.9933 E_vdwl   =     -2304.1280 
E_coul   =    210807.3464 E_long   =   -274199.2888 Press    =      -189.8500 
Volume   =    310005.8222 
---------------- Step     5350 ----- CPU =    334.8899 (sec) ----------------
TotEng   =    -25012.6593 KinEng   =     21599.1385 Temp     =       301.1914 
PotEng   =    -46611.7978 E_bond   =      2595.7061 E_angle  =     11058.4271 
E_dihed  =      5341.4947 E_impro  =       217.0853 E_vdwl   =     -2168.3711 
E_coul   =    210546.8146 E_long   =   -274202.9544 Press    =      -125.9575 
Volume   =    309789.6406 
---------------- Step     5400 ----- CPU =    337.9905 (sec) ----------------
TotEng   =    -25005.2051 KinEng   =     21551.9674 Temp     =       300.5336 
PotEng   =    -46557.1725 E_bond   =      2643.8107 E_angle  =     10920.3148 
E_dihed  =      5288.5886 E_impro  =       216.8819 E_vdwl   =     -2143.8901 
E_coul   =    210712.5342 E_long   =   -274195.4126 Press    =       -20.1815 
Volume   =    309573.7800 
---------------- Step     5450 ----- CPU =    341.0915 (sec) ----------------
TotEng   =    -24959.4773 KinEng   =     21580.4547 Temp     =       300.9309 
PotEng   =    -46539.9320 E_bond   =      2603.5525 E_angle  =     11098.2747 
E_dihed  =      5254.9833 E_impro  =       219.5808 E_vdwl   =     -2172.4550 
E_coul   =    210652.4170 E_long   =   -274196.2853 Press    =      -506.6289 
Volume   =    309355.3525 
---------------- Step     5500 ----- CPU =    344.2543 (sec) ----------------
TotEng   =    -24938.5224 KinEng   =     21550.5436 Temp     =       300.5138 
PotEng   =    -46489.0661 E_bond   =      2546.2000 E_angle  =     11091.4458 
E_dihed  =      5315.1429 E_impro  =       221.1514 E_vdwl   =     -2087.3854 
E_coul   =    210629.5422 E_long   =   -274205.1629 Press    =        84.2352 
Volume   =    309079.2895 
---------------- Step     5550 ----- CPU =    347.3570 (sec) ----------------
TotEng   =    -24985.9644 KinEng   =     21589.7157 Temp     =       301.0600 
PotEng   =    -46575.6802 E_bond   =      2605.6340 E_angle  =     11045.4949 
E_dihed  =      5338.9363 E_impro  =       211.9661 E_vdwl   =     -2071.5003 
E_coul   =    210495.0968 E_long   =   -274201.3079 Press    =         1.8915 
Volume   =    308755.5575 
---------------- Step     5600 ----- CPU =    350.5243 (sec) ----------------
TotEng   =    -25136.9243 KinEng   =     21664.0241 Temp     =       302.0962 
PotEng   =    -46800.9484 E_bond   =      2578.2457 E_angle  =     10993.7148 
E_dihed  =      5274.7947 E_impro  =       216.1979 E_vdwl   =     -2064.1746 
E_coul   =    210411.7607 E_long   =   -274211.4876 Press    =       254.5703 
Volume   =    308651.8504 
---------------- Step     5650 ----- CPU =    353.6326 (sec) ----------------
TotEng   =    -25292.7247 KinEng   =     21553.4604 Temp     =       300.5545 
PotEng   =    -46846.1851 E_bond   =      2584.6962 E_angle  =     10930.6510 
E_dihed  =      5263.9673 E_impro  =       222.9177 E_vdwl   =     -1923.0371 
E_coul   =    210296.4183 E_long   =   -274221.7985 Press    =       332.0901 
Volume   =    308694.2798 
---------------- Step     5700 ----- CPU =    356.7430 (sec) ----------------
TotEng   =    -25388.0293 KinEng   =     21288.2871 Temp     =       296.8567 
PotEng   =    -46676.3164 E_bond   =      2612.8376 E_angle  =     11106.3495 
E_dihed  =      5316.1433 E_impro  =       223.1706 E_vdwl   =     -2248.2980 
E_coul   =    210533.2035 E_long   =   -274219.7229 Press    =      -503.2316 
Volume   =    308813.6904 
---------------- Step     5750 ----- CPU =    359.9045 (sec) ----------------
TotEng   =    -25333.7839 KinEng   =     21562.0861 Temp     =       300.6747 
PotEng   =    -46895.8700 E_bond   =      2603.0180 E_angle  =     10878.8137 
E_dihed  =      5350.5861 E_impro  =       216.9172 E_vdwl   =     -1996.1711 
E_coul   =    210269.2926 E_long   =   -274218.3266 Press    =        16.1053 
Volume   =    308764.3990 
---------------- Step     5800 ----- CPU =    363.0129 (sec) ----------------
TotEng   =    -25215.2992 KinEng   =     21469.6400 Temp     =       299.3856 
PotEng   =    -46684.9393 E_bond   =      2578.5999 E_angle  =     11019.8830 
E_dihed  =      5261.0200 E_impro  =       227.4495 E_vdwl   =     -2080.5936 
E_coul   =    210523.8245 E_long   =   -274215.1226 Press    =       195.3082 
Volume   =    308762.0057 
---------------- Step     5850 ----- CPU =    366.1840 (sec) ----------------
TotEng   =    -25133.9870 KinEng   =     21483.9823 Temp     =       299.5856 
PotEng   =    -46617.9693 E_bond   =      2663.3631 E_angle  =     11057.3055 
E_dihed  =      5328.5342 E_impro  =       229.9925 E_vdwl   =     -2070.4684 
E_coul   =    210385.9886 E_long   =   -274212.6848 Press    =      -394.1294 
Volume   =    308791.6016 
---------------- Step     5900 ----- CPU =    369.3462 (sec) ----------------
TotEng   =    -25155.9197 KinEng   =     21576.4831 Temp     =       300.8755 
PotEng   =    -46732.4028 E_bond   =      2589.6015 E_angle  =     11010.2946 
E_dihed  =      5339.2626 E_impro  =       235.6841 E_vdwl   =     -2117.0689 
E_coul   =    210424.2247 E_long   =   -274214.4013 Press    =      -102.8521 
Volume   =    308771.7069 
---------------- Step     5950 ----- CPU =    372.4550 (sec) ----------------
TotEng   =    -25239.0148 KinEng   =     21401.2874 Temp     =       298.4325 
PotEng   =    -46640.3022 E_bond   =      2569.0694 E_angle  =     11028.9622 
E_dihed  =      5343.5413 E_impro  =       206.4267 E_vdwl   =     -1895.6707 
E_coul   =    210332.7457 E_long   =   -274225.3768 Press    =       -18.1479 
Volume   =    308677.4346 
---------------- Step     6000 ----- CPU =    375.5653 (sec) ----------------
TotEng   =    -25260.0436 KinEng   =     21546.3652 Temp     =       300.4555 
PotEng   =    -46806.4087 E_bond   =      2618.3482 E_angle  =     10960.5699 
E_dihed  =      5321.8722 E_impro  =       222.8893 E_vdwl   =     -2042.5517 
E_coul   =    210338.0512 E_long   =   -274225.5877 Press    =       103.7798 
Volume   =    308691.3927 
---------------- Step     6050 ----- CPU =    378.7360 (sec) ----------------
TotEng   =    -25236.8108 KinEng   =     21513.2745 Temp     =       299.9941 
PotEng   =    -46750.0853 E_bond   =      2604.1235 E_angle  =     11028.4203 
E_dihed  =      5308.0647 E_impro  =       239.4195 E_vdwl   =     -2181.2375 
E_coul   =    210460.3685 E_long   =   -274209.2443 Press    =       -52.7597 
Volume   =    308821.3621 
---------------- Step     6100 ----- CPU =    381.8443 (sec) ----------------
TotEng   =    -25101.2845 KinEng   =     21492.3134 Temp     =       299.7018 
PotEng   =    -46593.5979 E_bond   =      2563.1070 E_angle  =     11047.5099 
E_dihed  =      5373.5576 E_impro  =       232.3722 E_vdwl   =     -2007.5601 
E_coul   =    210405.4727 E_long   =   -274208.0574 Press    =       130.0282 
Volume   =    308967.2919 
---------------- Step     6150 ----- CPU =    385.0105 (sec) ----------------
TotEng   =    -24959.6847 KinEng   =     21484.6936 Temp     =       299.5955 
PotEng   =    -46444.3783 E_bond   =      2590.8424 E_angle  =     11198.9795 
E_dihed  =      5317.2228 E_impro  =       211.2232 E_vdwl   =     -2278.9820 
E_coul   =    210722.3912 E_long   =   -274206.0555 Press    =      -186.1872 
Volume   =    309105.3855 
---------------- Step     6200 ----- CPU =    388.1768 (sec) ----------------
TotEng   =    -24926.6018 KinEng   =     21638.9798 Temp     =       301.7470 
PotEng   =    -46565.5816 E_bond   =      2596.5951 E_angle  =     10995.0730 
E_dihed  =      5338.7726 E_impro  =       228.0742 E_vdwl   =     -2214.2661 
E_coul   =    210694.3400 E_long   =   -274204.1702 Press    =      -280.2599 
Volume   =    309190.8662 
---------------- Step     6250 ----- CPU =    391.2816 (sec) ----------------
TotEng   =    -25005.6090 KinEng   =     21527.1969 Temp     =       300.1882 
PotEng   =    -46532.8059 E_bond   =      2531.8118 E_angle  =     11080.6327 
E_dihed  =      5386.0516 E_impro  =       252.0231 E_vdwl   =     -2076.3772 
E_coul   =    210506.7900 E_long   =   -274213.7379 Press    =       450.9557 
Volume   =    309185.5208 
---------------- Step     6300 ----- CPU =    394.3893 (sec) ----------------
TotEng   =    -25206.6649 KinEng   =     21478.6974 Temp     =       299.5119 
PotEng   =    -46685.3622 E_bond   =      2556.4535 E_angle  =     11049.7609 
E_dihed  =      5339.0874 E_impro  =       217.5595 E_vdwl   =     -2097.5514 
E_coul   =    210464.7556 E_long   =   -274215.4278 Press    =       333.7915 
Volume   =    309141.2834 
---------------- Step     6350 ----- CPU =    397.5564 (sec) ----------------
TotEng   =    -25319.8443 KinEng   =     21381.2473 Temp     =       298.1530 
PotEng   =    -46701.0916 E_bond   =      2597.2861 E_angle  =     10918.2929 
E_dihed  =      5350.4253 E_impro  =       224.4043 E_vdwl   =     -1965.9332 
E_coul   =    210400.9253 E_long   =   -274226.4922 Press    =       182.3433 
Volume   =    309016.8725 
---------------- Step     6400 ----- CPU =    400.6625 (sec) ----------------
TotEng   =    -25227.6969 KinEng   =     21520.0046 Temp     =       300.0879 
PotEng   =    -46747.7016 E_bond   =      2539.4998 E_angle  =     11063.0237 
E_dihed  =      5331.0026 E_impro  =       220.0419 E_vdwl   =     -1983.5071 
E_coul   =    210283.0571 E_long   =   -274200.8194 Press    =       533.1516 
Volume   =    309060.1268 
---------------- Step     6450 ----- CPU =    403.7666 (sec) ----------------
TotEng   =    -25127.4071 KinEng   =     21582.3753 Temp     =       300.9577 
PotEng   =    -46709.7825 E_bond   =      2621.2034 E_angle  =     11052.9795 
E_dihed  =      5293.8241 E_impro  =       227.6128 E_vdwl   =     -1995.5591 
E_coul   =    210313.7866 E_long   =   -274223.6298 Press    =      -232.8645 
Volume   =    309188.9473 
---------------- Step     6500 ----- CPU =    406.8696 (sec) ----------------
TotEng   =    -25134.5374 KinEng   =     21515.0043 Temp     =       300.0182 
PotEng   =    -46649.5418 E_bond   =      2578.7754 E_angle  =     10992.0212 
E_dihed  =      5352.6057 E_impro  =       237.3334 E_vdwl   =     -2192.2786 
E_coul   =    210602.2021 E_long   =   -274220.2009 Press    =      -371.2255 
Volume   =    309275.5870 
---------------- Step     6550 ----- CPU =    409.9704 (sec) ----------------
TotEng   =    -25272.2508 KinEng   =     21444.8793 Temp     =       299.0403 
PotEng   =    -46717.1301 E_bond   =      2542.0669 E_angle  =     11115.1516 
E_dihed  =      5313.8987 E_impro  =       217.3558 E_vdwl   =     -1877.4727 
E_coul   =    210176.1656 E_long   =   -274204.2960 Press    =        22.0402 
Volume   =    309206.3282 
---------------- Step     6600 ----- CPU =    413.1336 (sec) ----------------
TotEng   =    -25354.4745 KinEng   =     21476.1912 Temp     =       299.4770 
PotEng   =    -46830.6657 E_bond   =      2585.7234 E_angle  =     11045.6423 
E_dihed  =      5331.2950 E_impro  =       211.0933 E_vdwl   =     -2078.1341 
E_coul   =    210291.9242 E_long   =   -274218.2098 Press    =      -195.6872 
Volume   =    309149.1452 
---------------- Step     6650 ----- CPU =    416.2397 (sec) ----------------
TotEng   =    -25279.0037 KinEng   =     21646.1851 Temp     =       301.8475 
PotEng   =    -46925.1888 E_bond   =      2491.4368 E_angle  =     11060.8674 
E_dihed  =      5307.1169 E_impro  =       216.3093 E_vdwl   =     -2045.5706 
E_coul   =    210262.4178 E_long   =   -274217.7664 Press    =       168.9090 
Volume   =    309153.4399 
---------------- Step     6700 ----- CPU =    419.4043 (sec) ----------------
TotEng   =    -25215.2855 KinEng   =     21691.8415 Temp     =       302.4841 
PotEng   =    -46907.1270 E_bond   =      2561.3941 E_angle  =     11008.7978 
E_dihed  =      5282.5485 E_impro  =       225.8160 E_vdwl   =     -2030.4201 
E_coul   =    210259.2379 E_long   =   -274214.5012 Press    =      -704.5321 
Volume   =    309233.7587 
---------------- Step     6750 ----- CPU =    422.5097 (sec) ----------------
TotEng   =    -25173.7793 KinEng   =     21476.8069 Temp     =       299.4856 
PotEng   =    -46650.5862 E_bond   =      2565.1354 E_angle  =     11182.7439 
E_dihed  =      5289.0179 E_impro  =       235.7750 E_vdwl   =     -2199.6067 
E_coul   =    210505.6537 E_long   =   -274229.3055 Press    =      -191.6983 
Volume   =    309153.3976 
---------------- Step     6800 ----- CPU =    425.6146 (sec) ----------------
TotEng   =    -25188.5313 KinEng   =     21427.9425 Temp     =       298.8042 
PotEng   =    -46616.4738 E_bond   =      2558.4363 E_angle  =     11164.4462 
E_dihed  =      5310.5827 E_impro  =       230.5004 E_vdwl   =     -2228.1340 
E_coul   =    210576.5734 E_long   =   -274228.8788 Press    =       268.9070 
Volume   =    308924.2256 
---------------- Step     6850 ----- CPU =    428.7192 (sec) ----------------
TotEng   =    -25278.7915 KinEng   =     21552.8380 Temp     =       300.5458 
PotEng   =    -46831.6295 E_bond   =      2603.9117 E_angle  =     10981.3586 
E_dihed  =      5285.4024 E_impro  =       226.0749 E_vdwl   =     -2125.9176 
E_coul   =    210427.8820 E_long   =   -274230.3416 Press    =       112.4641 
Volume   =    308712.7570 
---------------- Step     6900 ----- CPU =    431.8865 (sec) ----------------
TotEng   =    -25421.9617 KinEng   =     21337.7812 Temp     =       297.5469 
PotEng   =    -46759.7429 E_bond   =      2583.8735 E_angle  =     11027.4198 
E_dihed  =      5332.8092 E_impro  =       211.6967 E_vdwl   =     -1939.5022 
E_coul   =    210241.5059 E_long   =   -274217.5457 Press    =       111.0221 
Volume   =    308546.8182 
---------------- Step     6950 ----- CPU =    434.9940 (sec) ----------------
TotEng   =    -25360.9103 KinEng   =     21600.9348 Temp     =       301.2165 
PotEng   =    -46961.8451 E_bond   =      2536.5785 E_angle  =     10982.1399 
E_dihed  =      5360.1507 E_impro  =       234.9637 E_vdwl   =     -2137.8413 
E_coul   =    210276.3926 E_long   =   -274214.2292 Press    =      -253.0106 
Volume   =    308454.0584 
---------------- Step     7000 ----- CPU =    438.1047 (sec) ----------------
TotEng   =    -25199.5995 KinEng   =     21455.7476 Temp     =       299.1919 
PotEng   =    -46655.3471 E_bond   =      2584.8549 E_angle  =     11068.8912 
E_dihed  =      5260.8219 E_impro  =       222.0902 E_vdwl   =     -2152.6916 
E_coul   =    210582.1312 E_long   =   -274221.4449 Press    =       -48.5331 
Volume   =    308228.5654 
---------------- Step     7050 ----- CPU =    441.2201 (sec) ----------------
TotEng   =    -25148.4897 KinEng   =     21439.5976 Temp     =       298.9667 
PotEng   =    -46588.0873 E_bond   =      2613.4556 E_angle  =     11015.9082 
E_dihed  =      5332.7572 E_impro  =       228.0896 E_vdwl   =     -1929.1469 
E_coul   =    210380.3800 E_long   =   -274229.5311 Press    =       167.9124 
Volume   =    307945.6827 
---------------- Step     7100 ----- CPU =    444.3912 (sec) ----------------
TotEng   =    -25128.0262 KinEng   =     21590.8359 Temp     =       301.0757 
PotEng   =    -46718.8621 E_bond   =      2592.9924 E_angle  =     10989.2025 
E_dihed  =      5343.4313 E_impro  =       225.6512 E_vdwl   =     -2049.5621 
E_coul   =    210391.5114 E_long   =   -274212.0888 Press    =      -231.1431 
Volume   =    307838.4098 
---------------- Step     7150 ----- CPU =    447.5077 (sec) ----------------
TotEng   =    -25116.6955 KinEng   =     21527.8965 Temp     =       300.1980 
PotEng   =    -46644.5920 E_bond   =      2585.6373 E_angle  =     11129.9065 
E_dihed  =      5335.5610 E_impro  =       230.9183 E_vdwl   =     -2144.8493 
E_coul   =    210445.7285 E_long   =   -274227.4943 Press    =       -13.1723 
Volume   =    307830.5892 
---------------- Step     7200 ----- CPU =    450.6225 (sec) ----------------
TotEng   =    -25249.7684 KinEng   =     21427.2625 Temp     =       298.7947 
PotEng   =    -46677.0309 E_bond   =      2604.6440 E_angle  =     11140.5913 
E_dihed  =      5356.5598 E_impro  =       221.1818 E_vdwl   =     -2058.7065 
E_coul   =    210275.6406 E_long   =   -274216.9419 Press    =       386.9093 
Volume   =    307829.0183 
---------------- Step     7250 ----- CPU =    453.7347 (sec) ----------------
TotEng   =    -25410.1114 KinEng   =     21537.4471 Temp     =       300.3312 
PotEng   =    -46947.5585 E_bond   =      2529.3747 E_angle  =     11110.9909 
E_dihed  =      5243.8507 E_impro  =       199.8662 E_vdwl   =     -2042.0341 
E_coul   =    210225.5761 E_long   =   -274215.1830 Press    =        82.8780 
Volume   =    307880.1721 
---------------- Step     7300 ----- CPU =    456.9063 (sec) ----------------
TotEng   =    -25560.0930 KinEng   =     21204.9659 Temp     =       295.6948 
PotEng   =    -46765.0589 E_bond   =      2608.1231 E_angle  =     11098.7480 
E_dihed  =      5308.9428 E_impro  =       225.2253 E_vdwl   =     -2108.3751 
E_coul   =    210319.7363 E_long   =   -274217.4591 Press    =       -65.1054 
Volume   =    307997.6028 
---------------- Step     7350 ----- CPU =    460.0214 (sec) ----------------
TotEng   =    -25526.9221 KinEng   =     21482.9073 Temp     =       299.5706 
PotEng   =    -47009.8294 E_bond   =      2544.7871 E_angle  =     10942.1231 
E_dihed  =      5342.0042 E_impro  =       222.0377 E_vdwl   =     -2127.0228 
E_coul   =    210277.8544 E_long   =   -274211.6131 Press    =      -148.3668 
Volume   =    308012.5954 
---------------- Step     7400 ----- CPU =    463.1350 (sec) ----------------
TotEng   =    -25322.2188 KinEng   =     21547.4478 Temp     =       300.4706 
PotEng   =    -46869.6667 E_bond   =      2626.9732 E_angle  =     11014.7399 
E_dihed  =      5313.4078 E_impro  =       217.1683 E_vdwl   =     -1778.6227 
E_coul   =    209952.2354 E_long   =   -274215.5686 Press    =       254.8984 
Volume   =    307832.5967 
---------------- Step     7450 ----- CPU =    466.3075 (sec) ----------------
TotEng   =    -25150.6020 KinEng   =     21668.7073 Temp     =       302.1615 
PotEng   =    -46819.3093 E_bond   =      2520.4056 E_angle  =     11259.0435 
E_dihed  =      5292.1231 E_impro  =       219.2480 E_vdwl   =     -1982.2063 
E_coul   =    210096.6178 E_long   =   -274224.5410 Press    =       172.5613 
Volume   =    307637.2355 
---------------- Step     7500 ----- CPU =    469.4224 (sec) ----------------
TotEng   =    -25172.7537 KinEng   =     21566.6349 Temp     =       300.7382 
PotEng   =    -46739.3886 E_bond   =      2612.7538 E_angle  =     11136.8020 
E_dihed  =      5288.7655 E_impro  =       221.5522 E_vdwl   =     -2112.0116 
E_coul   =    210331.5136 E_long   =   -274218.7641 Press    =       231.3549 
Volume   =    307457.8901 
---------------- Step     7550 ----- CPU =    472.5415 (sec) ----------------
TotEng   =    -25332.5055 KinEng   =     21594.8443 Temp     =       301.1315 
PotEng   =    -46927.3498 E_bond   =      2543.4440 E_angle  =     11035.9203 
E_dihed  =      5300.3381 E_impro  =       219.2414 E_vdwl   =     -1978.0749 
E_coul   =    210175.4947 E_long   =   -274223.7134 Press    =       156.5090 
Volume   =    307485.7785 
---------------- Step     7600 ----- CPU =    475.6601 (sec) ----------------
TotEng   =    -25448.8374 KinEng   =     21482.0418 Temp     =       299.5586 
PotEng   =    -46930.8792 E_bond   =      2540.7857 E_angle  =     11050.3363 
E_dihed  =      5277.8381 E_impro  =       216.9617 E_vdwl   =     -2127.3531 
E_coul   =    210331.1142 E_long   =   -274220.5621 Press    =       129.0409 
Volume   =    307589.2371 
---------------- Step     7650 ----- CPU =    478.8367 (sec) ----------------
TotEng   =    -25388.4925 KinEng   =     21482.7318 Temp     =       299.5682 
PotEng   =    -46871.2243 E_bond   =      2606.1383 E_angle  =     11057.4676 
E_dihed  =      5239.1205 E_impro  =       241.8350 E_vdwl   =     -1970.7360 
E_coul   =    210170.1463 E_long   =   -274215.1960 Press    =        25.2150 
Volume   =    307664.3307 
---------------- Step     7700 ----- CPU =    481.9533 (sec) ----------------
TotEng   =    -25268.4561 KinEng   =     21559.6757 Temp     =       300.6411 
PotEng   =    -46828.1318 E_bond   =      2584.9216 E_angle  =     11066.3248 
E_dihed  =      5270.2531 E_impro  =       218.9481 E_vdwl   =     -2116.6177 
E_coul   =    210365.5477 E_long   =   -274217.5094 Press    =       100.6056 
Volume   =    307803.2436 
---------------- Step     7750 ----- CPU =    485.0113 (sec) ----------------
TotEng   =    -25180.2880 KinEng   =     21506.3544 Temp     =       299.8976 
PotEng   =    -46686.6424 E_bond   =      2651.3313 E_angle  =     11192.7706 
E_dihed  =      5335.2014 E_impro  =       220.2877 E_vdwl   =     -2254.3871 
E_coul   =    210384.6920 E_long   =   -274216.5383 Press    =      -453.2725 
Volume   =    307908.1773 
---------------- Step     7800 ----- CPU =    488.1824 (sec) ----------------
TotEng   =    -25175.5267 KinEng   =     21550.4874 Temp     =       300.5130 
PotEng   =    -46726.0141 E_bond   =      2613.5477 E_angle  =     11104.8076 
E_dihed  =      5312.6744 E_impro  =       226.2429 E_vdwl   =     -1986.1535 
E_coul   =    210230.6006 E_long   =   -274227.7339 Press    =       111.9197 
Volume   =    308018.0834 
---------------- Step     7850 ----- CPU =    491.2979 (sec) ----------------
TotEng   =    -25291.9803 KinEng   =     21519.8551 Temp     =       300.0859 
PotEng   =    -46811.8354 E_bond   =      2558.4897 E_angle  =     11038.6848 
E_dihed  =      5249.8106 E_impro  =       230.0625 E_vdwl   =     -1998.1033 
E_coul   =    210326.5895 E_long   =   -274217.3692 Press    =       107.5121 
Volume   =    308207.9552 
---------------- Step     7900 ----- CPU =    494.4090 (sec) ----------------
TotEng   =    -25403.7005 KinEng   =     21369.4890 Temp     =       297.9891 
PotEng   =    -46773.1895 E_bond   =      2559.7257 E_angle  =     11117.1048 
E_dihed  =      5305.4424 E_impro  =       212.9419 E_vdwl   =     -2080.8987 
E_coul   =    210337.4139 E_long   =   -274224.9194 Press    =        73.0091 
Volume   =    308342.5967 
---------------- Step     7950 ----- CPU =    497.5182 (sec) ----------------
TotEng   =    -25376.6496 KinEng   =     21352.4027 Temp     =       297.7508 
PotEng   =    -46729.0523 E_bond   =      2551.6725 E_angle  =     11101.0228 
E_dihed  =      5338.0233 E_impro  =       223.0616 E_vdwl   =     -2254.6493 
E_coul   =    210541.6308 E_long   =   -274229.8140 Press    =      -495.9108 
Volume   =    308474.4056 
---------------- Step     8000 ----- CPU =    500.6869 (sec) ----------------
TotEng   =    -25206.5977 KinEng   =     21712.9057 Temp     =       302.7779 
PotEng   =    -46919.5035 E_bond   =      2598.6619 E_angle  =     11037.7173 
E_dihed  =      5268.7321 E_impro  =       237.8617 E_vdwl   =     -2108.4407 
E_coul   =    210269.4550 E_long   =   -274223.4908 Press    =      -186.3118 
Volume   =    308388.1828 
---------------- Step     8050 ----- CPU =    503.8008 (sec) ----------------
TotEng   =    -25175.3643 KinEng   =     21539.1852 Temp     =       300.3554 
PotEng   =    -46714.5495 E_bond   =      2671.0530 E_angle  =     11065.4963 
E_dihed  =      5281.9549 E_impro  =       233.0891 E_vdwl   =     -1879.2668 
E_coul   =    210116.2981 E_long   =   -274203.1740 Press    =        77.7064 
Volume   =    308205.2955 
---------------- Step     8100 ----- CPU =    506.9175 (sec) ----------------
TotEng   =    -25356.3644 KinEng   =     21527.7445 Temp     =       300.1959 
PotEng   =    -46884.1089 E_bond   =      2505.7568 E_angle  =     11076.0610 
E_dihed  =      5283.8957 E_impro  =       235.0909 E_vdwl   =     -2112.1840 
E_coul   =    210343.8717 E_long   =   -274216.6010 Press    =       442.9180 
Volume   =    308025.8143 
---------------- Step     8150 ----- CPU =    510.0326 (sec) ----------------
TotEng   =    -25450.3042 KinEng   =     21419.9391 Temp     =       298.6926 
PotEng   =    -46870.2433 E_bond   =      2540.3578 E_angle  =     11065.1740 
E_dihed  =      5304.9294 E_impro  =       227.1630 E_vdwl   =     -2045.6459 
E_coul   =    210258.3208 E_long   =   -274220.5424 Press    =       180.0013 
Volume   =    307949.5034 
---------------- Step     8200 ----- CPU =    513.2057 (sec) ----------------
TotEng   =    -25348.1609 KinEng   =     21510.1555 Temp     =       299.9506 
PotEng   =    -46858.3164 E_bond   =      2563.8631 E_angle  =     11069.8858 
E_dihed  =      5332.0178 E_impro  =       211.9590 E_vdwl   =     -2130.4826 
E_coul   =    210312.0959 E_long   =   -274217.6556 Press    =      -262.4515 
Volume   =    308029.1191 
---------------- Step     8250 ----- CPU =    516.3197 (sec) ----------------
TotEng   =    -25203.4423 KinEng   =     21600.4135 Temp     =       301.2092 
PotEng   =    -46803.8558 E_bond   =      2544.4872 E_angle  =     11211.6244 
E_dihed  =      5265.0750 E_impro  =       219.1293 E_vdwl   =     -2144.1728 
E_coul   =    210316.8534 E_long   =   -274216.8523 Press    =       181.5875 
Volume   =    308120.6791 
---------------- Step     8300 ----- CPU =    519.4899 (sec) ----------------
TotEng   =    -25175.1629 KinEng   =     21302.2163 Temp     =       297.0510 
PotEng   =    -46477.3792 E_bond   =      2617.6431 E_angle  =     11202.4216 
E_dihed  =      5326.1864 E_impro  =       234.0391 E_vdwl   =     -2105.2625 
E_coul   =    210458.4424 E_long   =   -274210.8494 Press    =       189.5564 
Volume   =    308241.6726 
---------------- Step     8350 ----- CPU =    522.6004 (sec) ----------------
TotEng   =    -25272.0857 KinEng   =     21409.8078 Temp     =       298.5513 
PotEng   =    -46681.8936 E_bond   =      2674.1085 E_angle  =     11105.4247 
E_dihed  =      5283.1858 E_impro  =       242.1344 E_vdwl   =     -2226.0700 
E_coul   =    210419.9948 E_long   =   -274180.6717 Press    =      -171.3615 
Volume   =    308383.0627 
---------------- Step     8400 ----- CPU =    525.7133 (sec) ----------------
TotEng   =    -25338.8533 KinEng   =     21705.6314 Temp     =       302.6764 
PotEng   =    -47044.4847 E_bond   =      2548.8293 E_angle  =     11012.2493 
E_dihed  =      5243.1472 E_impro  =       222.2389 E_vdwl   =     -2198.6793 
E_coul   =    210333.6744 E_long   =   -274205.9445 Press    =      -283.3294 
Volume   =    308388.2182 
---------------- Step     8450 ----- CPU =    528.8832 (sec) ----------------
TotEng   =    -25346.2264 KinEng   =     21495.4877 Temp     =       299.7461 
PotEng   =    -46841.7141 E_bond   =      2596.3130 E_angle  =     11109.5721 
E_dihed  =      5328.7217 E_impro  =       208.3722 E_vdwl   =     -2005.2601 
E_coul   =    210124.3747 E_long   =   -274203.8077 Press    =        46.2862 
Volume   =    308373.3616 
---------------- Step     8500 ----- CPU =    531.9968 (sec) ----------------
TotEng   =    -25320.9302 KinEng   =     21611.4957 Temp     =       301.3637 
PotEng   =    -46932.4259 E_bond   =      2631.5744 E_angle  =     11054.6802 
E_dihed  =      5258.0810 E_impro  =       220.5122 E_vdwl   =     -2127.4039 
E_coul   =    210249.2007 E_long   =   -274219.0707 Press    =      -445.2794 
Volume   =    308316.0646 
---------------- Step     8550 ----- CPU =    535.1069 (sec) ----------------
TotEng   =    -25286.7088 KinEng   =     21462.9219 Temp     =       299.2919 
PotEng   =    -46749.6306 E_bond   =      2627.2843 E_angle  =     11096.6222 
E_dihed  =      5285.8059 E_impro  =       228.2452 E_vdwl   =     -2100.2408 
E_coul   =    210341.8625 E_long   =   -274229.2098 Press    =       358.5822 
Volume   =    308312.2476 
---------------- Step     8600 ----- CPU =    538.2219 (sec) ----------------
TotEng   =    -25217.3136 KinEng   =     21493.9940 Temp     =       299.7252 
PotEng   =    -46711.3076 E_bond   =      2645.4517 E_angle  =     11025.6796 
E_dihed  =      5317.1729 E_impro  =       231.2144 E_vdwl   =     -2139.5797 
E_coul   =    210427.6539 E_long   =   -274218.9004 Press    =      -143.0686 
Volume   =    308248.8750 
---------------- Step     8650 ----- CPU =    541.3351 (sec) ----------------
TotEng   =    -25138.4444 KinEng   =     21683.8434 Temp     =       302.3726 
PotEng   =    -46822.2878 E_bond   =      2520.4391 E_angle  =     11162.3472 
E_dihed  =      5282.7418 E_impro  =       234.9562 E_vdwl   =     -2120.6490 
E_coul   =    210319.8154 E_long   =   -274221.9387 Press    =       173.6450 
Volume   =    308154.3191 
---------------- Step     8700 ----- CPU =    544.5086 (sec) ----------------
TotEng   =    -25203.0107 KinEng   =     21559.9387 Temp     =       300.6448 
PotEng   =    -46762.9494 E_bond   =      2596.6134 E_angle  =     11066.6622 
E_dihed  =      5240.3475 E_impro  =       218.5848 E_vdwl   =     -1865.2291 
E_coul   =    210190.1480 E_long   =   -274210.0761 Press    =       279.5068 
Volume   =    308242.8302 
---------------- Step     8750 ----- CPU =    547.6238 (sec) ----------------
TotEng   =    -25302.6305 KinEng   =     21405.4875 Temp     =       298.4910 
PotEng   =    -46708.1180 E_bond   =      2565.6739 E_angle  =     11248.3325 
E_dihed  =      5275.3372 E_impro  =       229.7563 E_vdwl   =     -1925.0932 
E_coul   =    210110.5688 E_long   =   -274212.6936 Press    =        50.5564 
Volume   =    308362.2983 
---------------- Step     8800 ----- CPU =    550.7935 (sec) ----------------
TotEng   =    -25309.6649 KinEng   =     21409.5287 Temp     =       298.5474 
PotEng   =    -46719.1936 E_bond   =      2577.3169 E_angle  =     11312.9941 
E_dihed  =      5248.7472 E_impro  =       227.4774 E_vdwl   =     -2008.6963 
E_coul   =    210135.7438 E_long   =   -274212.7767 Press    =       -87.8583 
Volume   =    308433.1282 
---------------- Step     8850 ----- CPU =    553.9032 (sec) ----------------
TotEng   =    -25246.1313 KinEng   =     21575.0762 Temp     =       300.8559 
PotEng   =    -46821.2075 E_bond   =      2561.7859 E_angle  =     11058.5635 
E_dihed  =      5308.7571 E_impro  =       227.6007 E_vdwl   =     -2089.8456 
E_coul   =    210325.8193 E_long   =   -274213.8884 Press    =        20.5226 
Volume   =    308442.5525 
---------------- Step     8900 ----- CPU =    557.0131 (sec) ----------------
TotEng   =    -25212.3630 KinEng   =     21596.3718 Temp     =       301.1528 
PotEng   =    -46808.7348 E_bond   =      2634.2151 E_angle  =     11142.8802 
E_dihed  =      5274.6038 E_impro  =       230.8656 E_vdwl   =     -2032.5208 
E_coul   =    210164.3576 E_long   =   -274223.1363 Press    =       -54.2608 
Volume   =    308455.4710 
---------------- Step     8950 ----- CPU =    560.1227 (sec) ----------------
TotEng   =    -25314.6024 KinEng   =     21510.1882 Temp     =       299.9511 
PotEng   =    -46824.7906 E_bond   =      2590.7511 E_angle  =     11187.5339 
E_dihed  =      5261.1405 E_impro  =       223.7611 E_vdwl   =     -2052.7634 
E_coul   =    210188.7456 E_long   =   -274223.9595 Press    =       130.2053 
Volume   =    308335.5588 
---------------- Step     9000 ----- CPU =    563.2925 (sec) ----------------
TotEng   =    -25373.4543 KinEng   =     21420.6315 Temp     =       298.7022 
PotEng   =    -46794.0857 E_bond   =      2576.8327 E_angle  =     11042.4015 
E_dihed  =      5284.5809 E_impro  =       231.4867 E_vdwl   =     -1948.9435 
E_coul   =    210242.4786 E_long   =   -274222.9226 Press    =       179.5796 
Volume   =    308180.4037 
---------------- Step     9050 ----- CPU =    566.4034 (sec) ----------------
TotEng   =    -25387.0878 KinEng   =     21479.3342 Temp     =       299.5208 
PotEng   =    -46866.4220 E_bond   =      2610.3108 E_angle  =     11152.4195 
E_dihed  =      5293.5121 E_impro  =       222.6904 E_vdwl   =     -1999.2573 
E_coul   =    210067.2806 E_long   =   -274213.3781 Press    =      -197.1957 
Volume   =    308167.7162 
---------------- Step     9100 ----- CPU =    569.5787 (sec) ----------------
TotEng   =    -25343.0323 KinEng   =     21507.7402 Temp     =       299.9169 
PotEng   =    -46850.7725 E_bond   =      2600.1093 E_angle  =     11064.0465 
E_dihed  =      5290.3780 E_impro  =       235.8866 E_vdwl   =     -1967.7708 
E_coul   =    210131.9264 E_long   =   -274205.3485 Press    =       -23.6120 
Volume   =    308210.2821 
---------------- Step     9150 ----- CPU =    572.6920 (sec) ----------------
TotEng   =    -25192.8095 KinEng   =     21586.8153 Temp     =       301.0196 
PotEng   =    -46779.6248 E_bond   =      2602.2070 E_angle  =     11159.7533 
E_dihed  =      5306.8594 E_impro  =       226.5267 E_vdwl   =     -2039.7826 
E_coul   =    210185.1422 E_long   =   -274220.3307 Press    =      -105.7112 
Volume   =    308255.0051 
---------------- Step     9200 ----- CPU =    575.8639 (sec) ----------------
TotEng   =    -25124.1475 KinEng   =     21475.9474 Temp     =       299.4736 
PotEng   =    -46600.0950 E_bond   =      2617.4945 E_angle  =     11043.4806 
E_dihed  =      5363.4497 E_impro  =       232.4232 E_vdwl   =     -1924.4276 
E_coul   =    210295.2928 E_long   =   -274227.8081 Press    =      -423.9060 
Volume   =    308266.7001 
---------------- Step     9250 ----- CPU =    578.9753 (sec) ----------------
TotEng   =    -25148.5967 KinEng   =     21462.0098 Temp     =       299.2792 
PotEng   =    -46610.6065 E_bond   =      2686.0290 E_angle  =     11118.3918 
E_dihed  =      5307.1366 E_impro  =       242.7855 E_vdwl   =     -2173.3289 
E_coul   =    210437.2828 E_long   =   -274228.9033 Press    =      -433.0140 
Volume   =    308257.3242 
---------------- Step     9300 ----- CPU =    582.0856 (sec) ----------------
TotEng   =    -25252.9013 KinEng   =     21516.3921 Temp     =       300.0376 
PotEng   =    -46769.2934 E_bond   =      2658.5215 E_angle  =     11193.4372 
E_dihed  =      5286.9389 E_impro  =       220.7339 E_vdwl   =     -2061.9099 
E_coul   =    210152.2873 E_long   =   -274219.3023 Press    =       148.0360 
Volume   =    308023.7611 
---------------- Step     9350 ----- CPU =    585.1994 (sec) ----------------
TotEng   =    -25420.1980 KinEng   =     21452.8928 Temp     =       299.1521 
PotEng   =    -46873.0908 E_bond   =      2607.3767 E_angle  =     10998.4176 
E_dihed  =      5320.8699 E_impro  =       219.8135 E_vdwl   =     -2128.0819 
E_coul   =    210328.9113 E_long   =   -274220.3979 Press    =        83.3147 
Volume   =    307903.1293 
---------------- Step     9400 ----- CPU =    588.3704 (sec) ----------------
TotEng   =    -25494.3880 KinEng   =     21466.1642 Temp     =       299.3372 
PotEng   =    -46960.5523 E_bond   =      2546.3060 E_angle  =     11094.8048 
E_dihed  =      5233.6795 E_impro  =       210.6151 E_vdwl   =     -2004.7494 
E_coul   =    210179.8910 E_long   =   -274221.0993 Press    =       147.5305 
Volume   =    307918.4327 
---------------- Step     9450 ----- CPU =    591.4852 (sec) ----------------
TotEng   =    -25501.0140 KinEng   =     21446.6476 Temp     =       299.0650 
PotEng   =    -46947.6617 E_bond   =      2552.0562 E_angle  =     11154.2932 
E_dihed  =      5312.5595 E_impro  =       202.5013 E_vdwl   =     -2130.6888 
E_coul   =    210171.9983 E_long   =   -274210.3814 Press    =      -280.4095 
Volume   =    307920.8588 
---------------- Step     9500 ----- CPU =    594.5972 (sec) ----------------
TotEng   =    -25416.1569 KinEng   =     21409.9238 Temp     =       298.5529 
PotEng   =    -46826.0806 E_bond   =      2603.0992 E_angle  =     11174.3903 
E_dihed  =      5274.4830 E_impro  =       216.1014 E_vdwl   =     -1994.4704 
E_coul   =    210128.2306 E_long   =   -274227.9148 Press    =       -84.8162 
Volume   =    308026.4022 
---------------- Step     9550 ----- CPU =    597.7695 (sec) ----------------
TotEng   =    -25284.0719 KinEng   =     21544.8012 Temp     =       300.4337 
PotEng   =    -46828.8732 E_bond   =      2626.3768 E_angle  =     11114.2031 
E_dihed  =      5256.0340 E_impro  =       224.1423 E_vdwl   =     -2092.7853 
E_coul   =    210277.4286 E_long   =   -274234.2726 Press    =      -223.6230 
Volume   =    308052.6686 
---------------- Step     9600 ----- CPU =    600.8826 (sec) ----------------
TotEng   =    -25205.0903 KinEng   =     21566.3823 Temp     =       300.7347 
PotEng   =    -46771.4727 E_bond   =      2602.0146 E_angle  =     11154.0426 
E_dihed  =      5308.6379 E_impro  =       230.2428 E_vdwl   =     -2181.5186 
E_coul   =    210336.5696 E_long   =   -274221.4615 Press    =      -134.1205 
Volume   =    307963.5956 
---------------- Step     9650 ----- CPU =    604.0523 (sec) ----------------
TotEng   =    -25257.6757 KinEng   =     21545.3621 Temp     =       300.4415 
PotEng   =    -46803.0378 E_bond   =      2605.0065 E_angle  =     11129.2357 
E_dihed  =      5243.7476 E_impro  =       260.9288 E_vdwl   =     -1981.5352 
E_coul   =    210181.7150 E_long   =   -274242.1362 Press    =        93.1034 
Volume   =    307663.5101 
---------------- Step     9700 ----- CPU =    607.1707 (sec) ----------------
TotEng   =    -25446.1301 KinEng   =     21685.4540 Temp     =       302.3951 
PotEng   =    -47131.5841 E_bond   =      2570.7645 E_angle  =     11007.3711 
E_dihed  =      5228.2275 E_impro  =       229.0734 E_vdwl   =     -2035.2592 
E_coul   =    210091.1245 E_long   =   -274222.8860 Press    =       175.2580 
Volume   =    307475.1540 
---------------- Step     9750 ----- CPU =    610.2869 (sec) ----------------
TotEng   =    -25626.0956 KinEng   =     21527.0781 Temp     =       300.1866 
PotEng   =    -47153.1737 E_bond   =      2597.2837 E_angle  =     10972.4113 
E_dihed  =      5269.4245 E_impro  =       222.1116 E_vdwl   =     -2115.6598 
E_coul   =    210124.6114 E_long   =   -274223.3564 Press    =       -96.4154 
Volume   =    307410.4961 
---------------- Step     9800 ----- CPU =    613.4062 (sec) ----------------
TotEng   =    -25569.2559 KinEng   =     21355.8317 Temp     =       297.7986 
PotEng   =    -46925.0876 E_bond   =      2596.6916 E_angle  =     11045.5825 
E_dihed  =      5357.6968 E_impro  =       225.1341 E_vdwl   =     -2042.4807 
E_coul   =    210109.0898 E_long   =   -274216.8018 Press    =       146.4491 
Volume   =    307218.6313 
---------------- Step     9850 ----- CPU =    616.5245 (sec) ----------------
TotEng   =    -25287.4090 KinEng   =     21661.6316 Temp     =       302.0629 
PotEng   =    -46949.0407 E_bond   =      2548.9884 E_angle  =     10988.3111 
E_dihed  =      5322.0210 E_impro  =       216.5597 E_vdwl   =     -2096.0472 
E_coul   =    210290.7033 E_long   =   -274219.5769 Press    =       124.6012 
Volume   =    307063.6569 
---------------- Step     9900 ----- CPU =    619.7012 (sec) ----------------
TotEng   =    -25066.7013 KinEng   =     21636.6818 Temp     =       301.7150 
PotEng   =    -46703.3831 E_bond   =      2665.2838 E_angle  =     11143.7546 
E_dihed  =      5209.7013 E_impro  =       230.8215 E_vdwl   =     -2170.0410 
E_coul   =    210417.4997 E_long   =   -274200.4031 Press    =      -143.0500 
Volume   =    307093.8312 
---------------- Step     9950 ----- CPU =    622.8232 (sec) ----------------
TotEng   =    -25048.2803 KinEng   =     21456.4773 Temp     =       299.2021 
PotEng   =    -46504.7576 E_bond   =      2609.9129 E_angle  =     11221.4414 
E_dihed  =      5322.7442 E_impro  =       250.3068 E_vdwl   =     -2282.7929 
E_coul   =    210591.9369 E_long   =   -274218.3068 Press    =      -153.0168 
Volume   =    307092.9112 
---------------- Step    10000 ----- CPU =    625.9404 (sec) ----------------
TotEng   =    -25114.9760 KinEng   =     21562.7847 Temp     =       300.6845 
PotEng   =    -46677.7608 E_bond   =      2599.8580 E_angle  =     11169.0830 
E_dihed  =      5321.1779 E_impro  =       233.2260 E_vdwl   =     -2110.7392 
E_coul   =    210331.5894 E_long   =   -274221.9558 Press    =       -21.4512 
Volume   =    307048.4612 
Loop time of 625.941 on 1 procs for 10000 steps with 32000 atoms

Performance: 2.761 ns/day, 8.694 hours/ns, 15.976 timesteps/s
100.0% CPU use with 1 MPI tasks x 1 OpenMP threads

MPI task timing breakdown:
Section |  min time  |  avg time  |  max time  |%varavg| %total
---------------------------------------------------------------
Pair    | 436.09     | 436.09     | 436.09     |   0.0 | 69.67
Bond    | 26.224     | 26.224     | 26.224     |   0.0 |  4.19
Kspace  | 61.305     | 61.305     | 61.305     |   0.0 |  9.79
Neigh   | 51.395     | 51.395     | 51.395     |   0.0 |  8.21
Comm    | 11.819     | 11.819     | 11.819     |   0.0 |  1.89
Output  | 0.017716   | 0.017716   | 0.017716   |   0.0 |  0.00
Modify  | 37.369     | 37.369     | 37.369     |   0.0 |  5.97
Other   |            | 1.726      |            |       |  0.28

Nlocal:          32000 ave       32000 max       32000 min
Histogram: 1 0 0 0 0 0 0 0 0 0
Nghost:          48004 ave       48004 max       48004 min
Histogram: 1 0 0 0 0 0 0 0 0 0
Neighs:    1.20677e+07 ave 1.20677e+07 max 1.20677e+07 min
Histogram: 1 0 0 0 0 0 0 0 0 0

Total # of neighbors = 12067732
Ave neighs/atom = 377.11662
Ave special neighs/atom = 7.431875
Neighbor list builds = 1072
Dangerous builds = 0
Total wall time: 0:10:26
Intel(R) VTune(TM) Profiler 2022.2.0 collection completed successfully. Use the "aps --report /home/ubuntu/lammps/bench/aps_result_20220703" command to generate textual and HTML reports for the profiling session.
