LAMMPS (7 Jan 2022)
  using 1 OpenMP thread(s) per MPI task
New timer settings: style=full  mode=nosync  timeout=off
Reading data file ...
  orthogonal box = (-27.5 -38.5 -36.3646) to (27.5 38.5 36.3615)
  4 by 4 by 4 MPI processor grid
  reading atoms ...
  32000 atoms
  reading velocities ...
  32000 velocities
  scanning bonds ...
  4 = max bonds/atom
  scanning angles ...
  8 = max angles/atom
  scanning dihedrals ...
  18 = max dihedrals/atom
  scanning impropers ...
  2 = max impropers/atom
  reading bonds ...
  27723 bonds
  reading angles ...
  40467 angles
  reading dihedrals ...
  56829 dihedrals
  reading impropers ...
  1034 impropers
Finding 1-2 1-3 1-4 neighbors ...
  special bond factors lj:    0        0        0       
  special bond factors coul:  0        0        0       
     4 = max # of 1-2 neighbors
    12 = max # of 1-3 neighbors
    24 = max # of 1-4 neighbors
    26 = max # of special neighbors
  special bonds CPU = 0.015 seconds
  read_data CPU = 0.193 seconds
Replicating atoms ...
  orthogonal box = (-27.5 -38.5 -36.3646) to (137.5 192.5 181.8137)
  4 by 4 by 4 MPI processor grid
  864000 atoms
  748521 bonds
  1092609 angles
  1534383 dihedrals
  27918 impropers
Finding 1-2 1-3 1-4 neighbors ...
  special bond factors lj:    0        0        0       
  special bond factors coul:  0        0        0       
     4 = max # of 1-2 neighbors
    12 = max # of 1-3 neighbors
    24 = max # of 1-4 neighbors
    26 = max # of special neighbors
  special bonds CPU = 0.028 seconds
  replicate CPU = 0.057 seconds
Finding SHAKE clusters ...
   43659 = # of size 2 clusters
   98091 = # of size 3 clusters
   20169 = # of size 4 clusters
  114291 = # of frozen angles
  find clusters CPU = 0.010 seconds
PPPM initialization ...
  using 12-bit tables for long-range coulomb (../kspace.cpp:340)
  G vector (1/distance) = 0.25235202
  grid = 72 90 90
  stencil order = 7
  estimated absolute RMS force accuracy = 0.029803316
  estimated relative force accuracy = 8.9751802e-05
  using single precision MKL FFT
  3d grid and FFT values/proc = 22500 12960
----------------------------------------------------------
Using INTEL Package without Coprocessor.
Compiler: Intel Classic C++ 20.21.5 / Intel(R) C++ g++ 9.3 mode
SIMD compiler directives: Enabled
Precision: mixed
----------------------------------------------------------
  generated 2278 of 2278 mixed pair_coeff terms from arithmetic mixing rule
Neighbor list info ...
  update every 1 steps, delay 5 steps, check yes
  max neighbors/atom: 2000, page size: 100000
  master list distance cutoff = 12
  ghost atom cutoff = 12
  binsize = 6, bins = 28 39 37
  1 neighbor lists, perpetual/occasional/extra = 1 0 0
  (1) pair lj/charmm/coul/long/intel, perpetual
      attributes: half, newton on, intel
      pair build: half/bin/newton/intel
      stencil: half/bin/3d
      bin: intel
Setting up Verlet run ...
  Unit style    : real
  Current step  : 0
  Time step     : 2
Per MPI rank memory allocation (min/avg/max) = 171.4 | 173.5 | 175 Mbytes
---------------- Step        0 ----- CPU =      0.0000 (sec) ----------------
TotEng   =   -684670.9763 KinEng   =    579010.4447 Temp     =       299.0277 
PotEng   =  -1263681.4210 E_bond   =     68525.6859 E_angle  =    294877.1223 
E_dihed  =    140718.2350 E_impro  =      5764.8965 E_vdwl   =    -62312.3838 
E_coul   =   5692538.4975 E_long   =  -7403793.4744 Press    =      -148.6879 
Volume   =   8315865.9045 
---------------- Step       50 ----- CPU =      1.8788 (sec) ----------------
TotEng   =   -683945.7621 KinEng   =    580525.9615 Temp     =       299.8104 
PotEng   =  -1264471.7236 E_bond   =     66737.4230 E_angle  =    292591.4771 
E_dihed  =    141470.6054 E_impro  =      6132.4086 E_vdwl   =    -53811.2295 
E_coul   =   5686392.7572 E_long   =  -7403985.1653 Press    =       238.9181 
Volume   =   8316862.5487 
---------------- Step      100 ----- CPU =      3.8144 (sec) ----------------
TotEng   =   -682828.1168 KinEng   =    582915.1903 Temp     =       301.0443 
PotEng   =  -1265743.3071 E_bond   =     69335.2194 E_angle  =    291121.4605 
E_dihed  =    140366.2158 E_impro  =      5852.7123 E_vdwl   =    -51271.2555 
E_coul   =   5682697.0993 E_long   =  -7403844.7588 Press    =        14.5818 
Volume   =   8319656.0679 
Loop time of 3.81449 on 64 procs for 100 steps with 864000 atoms

Performance: 4.530 ns/day, 5.298 hours/ns, 26.216 timesteps/s
97.9% CPU use with 64 MPI tasks x 1 OpenMP threads

MPI task timing breakdown:
Section |  min time  |  avg time  |  max time  |%varavg|  %CPU | %total
-----------------------------------------------------------------------
Pair    | 2.0281     | 2.1126     | 2.1965     |   3.3 |  99.7 | 55.38
Bond    | 0.10092    | 0.13379    | 0.16817    |   6.6 |  99.7 |  3.51
Kspace  | 0.43673    | 0.51984    | 0.60284    |   6.9 |  91.1 | 13.63
Neigh   | 0.28063    | 0.28199    | 0.28318    |   0.1 |  99.9 |  7.39
Comm    | 0.24357    | 0.26556    | 0.28133    |   2.3 |  94.6 |  6.96
Output  | 0.00014159 | 0.00014499 | 0.00019048 |   0.0 | 100.0 |  0.00
Modify  | 0.42422    | 0.45259    | 0.49221    |   3.9 |  97.6 | 11.87
Other   |            | 0.04799    |            |       |       |  1.26

Nlocal:          13500 ave       13668 max       13282 min
Histogram: 2 1 5 9 8 7 11 11 6 4
Nghost:        29964.3 ave       30276 max       29668 min
Histogram: 3 3 9 7 13 11 7 5 2 4
Neighs:    5.07435e+06 ave  5.1996e+06 max 4.96475e+06 min
Histogram: 2 4 11 10 11 9 8 2 3 4

Total # of neighbors = 3.2475855e+08
Ave neighs/atom = 375.87795
Ave special neighs/atom = 7.431875
Neighbor list builds = 11
Dangerous builds = 0
Total wall time: 0:00:04
Intel(R) VTune(TM) Profiler 2022.2.0 collection completed successfully. Use the "aps --report /home/ubuntu/lammps/bench/aps_result_20220421" command to generate textual and HTML reports for the profiling session.
