LAMMPS (7 Jan 2022)
  using 1 OpenMP thread(s) per MPI task
Reading data file ...
  orthogonal box = (-27.5 -38.5 -36.3646) to (27.5 38.5 36.3615)
  2 by 2 by 2 MPI processor grid
  reading atoms ...
  32000 atoms
  reading velocities ...
  32000 velocities
  scanning bonds ...
  4 = max bonds/atom
  scanning angles ...
  8 = max angles/atom
  scanning dihedrals ...
  18 = max dihedrals/atom
  scanning impropers ...
  2 = max impropers/atom
  reading bonds ...
  27723 bonds
  reading angles ...
  40467 angles
  reading dihedrals ...
  56829 dihedrals
  reading impropers ...
  1034 impropers
Finding 1-2 1-3 1-4 neighbors ...
  special bond factors lj:    0        0        0       
  special bond factors coul:  0        0        0       
     4 = max # of 1-2 neighbors
    12 = max # of 1-3 neighbors
    24 = max # of 1-4 neighbors
    26 = max # of special neighbors
  special bonds CPU = 0.003 seconds
  read_data CPU = 0.963 seconds
Finding SHAKE clusters ...
    1617 = # of size 2 clusters
    3633 = # of size 3 clusters
     747 = # of size 4 clusters
    4233 = # of frozen angles
  find clusters CPU = 0.002 seconds
PPPM initialization ...
  using 12-bit tables for long-range coulomb (../kspace.cpp:340)
  G vector (1/distance) = 0.25235202
  grid = 24 30 30
  stencil order = 7
  estimated absolute RMS force accuracy = 0.029803316
  estimated relative force accuracy = 8.9751802e-05
  using single precision MKL FFT
  3d grid and FFT values/proc = 9196 2880
----------------------------------------------------------
Using INTEL Package without Coprocessor.
Compiler: Intel Classic C++ 20.21.5 / Intel(R) C++ g++ 9.3 mode
SIMD compiler directives: Enabled
Precision: double
----------------------------------------------------------
  generated 2278 of 2278 mixed pair_coeff terms from arithmetic mixing rule
Neighbor list info ...
  update every 1 steps, delay 5 steps, check yes
  max neighbors/atom: 2000, page size: 100000
  master list distance cutoff = 12
  ghost atom cutoff = 12
  binsize = 6, bins = 10 13 13
  1 neighbor lists, perpetual/occasional/extra = 1 0 0
  (1) pair lj/charmm/coul/long/intel, perpetual
      attributes: half, newton on, intel
      pair build: half/bin/newton/intel
      stencil: half/bin/3d
      bin: intel
Setting up Verlet run ...
  Unit style    : real
  Current step  : 0
  Time step     : 2
Per MPI rank memory allocation (min/avg/max) = 71.09 | 71.73 | 72.36 Mbytes
---------------- Step        0 ----- CPU =      0.0000 (sec) ----------------
TotEng   =    -25358.1836 KinEng   =     21444.8313 Temp     =       299.0397 
PotEng   =    -46803.0149 E_bond   =      2537.9940 E_angle  =     10921.3742 
E_dihed  =      5211.7865 E_impro  =       213.5116 E_vdwl   =     -2307.8634 
E_coul   =    210834.7465 E_long   =   -274214.5643 Press    =      -148.6832 
Volume   =    307995.0335 
---------------- Step       50 ----- CPU =      2.3342 (sec) ----------------
TotEng   =    -25332.1019 KinEng   =     21500.5284 Temp     =       299.8163 
PotEng   =    -46832.6303 E_bond   =      2471.7255 E_angle  =     10836.5740 
E_dihed  =      5239.6303 E_impro  =       227.1249 E_vdwl   =     -1993.0709 
E_coul   =    210607.0524 E_long   =   -274221.6665 Press    =       238.8043 
Volume   =    308031.9413 
---------------- Step      100 ----- CPU =      4.2542 (sec) ----------------
TotEng   =    -25292.3495 KinEng   =     21588.2591 Temp     =       301.0397 
PotEng   =    -46880.6087 E_bond   =      2567.8634 E_angle  =     10781.8374 
E_dihed  =      5198.6643 E_impro  =       216.7594 E_vdwl   =     -1899.0505 
E_coul   =    210469.8139 E_long   =   -274216.4966 Press    =        14.2728 
Volume   =    308135.3273 
---------------- Step      150 ----- CPU =      5.9173 (sec) ----------------
TotEng   =    -25260.1718 KinEng   =     21534.2803 Temp     =       300.2870 
PotEng   =    -46794.4522 E_bond   =      2556.6719 E_angle  =     10854.0662 
E_dihed  =      5264.4344 E_impro  =       203.0075 E_vdwl   =     -2074.2402 
E_coul   =    210607.9570 E_long   =   -274206.3490 Press    =       244.0543 
Volume   =    308518.6150 
---------------- Step      200 ----- CPU =      7.5247 (sec) ----------------
TotEng   =    -25078.6966 KinEng   =     21540.6719 Temp     =       300.3761 
PotEng   =    -46619.3684 E_bond   =      2489.4038 E_angle  =     11075.6788 
E_dihed  =      5221.5679 E_impro  =       232.4444 E_vdwl   =     -2148.6032 
E_coul   =    210715.5148 E_long   =   -274205.3750 Press    =        40.6913 
Volume   =    308999.4070 
---------------- Step      250 ----- CPU =      9.1782 (sec) ----------------
TotEng   =    -24960.5661 KinEng   =     21533.9716 Temp     =       300.2827 
PotEng   =    -46494.5376 E_bond   =      2541.5045 E_angle  =     11095.3581 
E_dihed  =      5245.3933 E_impro  =       213.3995 E_vdwl   =     -2165.8651 
E_coul   =    210798.6323 E_long   =   -274222.9602 Press    =      -156.6250 
Volume   =    309392.3966 
---------------- Step      300 ----- CPU =     10.6461 (sec) ----------------
TotEng   =    -25028.1511 KinEng   =     21519.6581 Temp     =       300.0831 
PotEng   =    -46547.8092 E_bond   =      2560.5133 E_angle  =     10926.7417 
E_dihed  =      5223.0431 E_impro  =       224.5274 E_vdwl   =     -2171.4147 
E_coul   =    210896.4486 E_long   =   -274207.6686 Press    =      -384.4048 
Volume   =    309703.8986 
---------------- Step      350 ----- CPU =     12.1581 (sec) ----------------
TotEng   =    -25142.8694 KinEng   =     21594.7528 Temp     =       301.1303 
PotEng   =    -46737.6222 E_bond   =      2580.3165 E_angle  =     10957.0617 
E_dihed  =      5253.3511 E_impro  =       208.9720 E_vdwl   =     -2054.5171 
E_coul   =    210539.3024 E_long   =   -274222.1088 Press    =      -332.1022 
Volume   =    309847.2590 
---------------- Step      400 ----- CPU =     13.6021 (sec) ----------------
TotEng   =    -25301.6431 KinEng   =     21398.6480 Temp     =       298.3957 
PotEng   =    -46700.2911 E_bond   =      2543.2038 E_angle  =     10925.3217 
E_dihed  =      5215.6061 E_impro  =       213.4010 E_vdwl   =     -1959.7621 
E_coul   =    210574.1942 E_long   =   -274212.2558 Press    =       284.8856 
Volume   =    309889.2159 
---------------- Step      450 ----- CPU =     15.0581 (sec) ----------------
TotEng   =    -25351.8472 KinEng   =     21487.1011 Temp     =       299.6291 
PotEng   =    -46838.9483 E_bond   =      2495.1648 E_angle  =     10908.9790 
E_dihed  =      5264.9383 E_impro  =       224.4536 E_vdwl   =     -2167.4997 
E_coul   =    210638.9438 E_long   =   -274203.9280 Press    =       206.4675 
Volume   =    309985.6082 
---------------- Step      500 ----- CPU =     16.5684 (sec) ----------------
TotEng   =    -25136.0110 KinEng   =     21443.8179 Temp     =       299.0255 
PotEng   =    -46579.8289 E_bond   =      2588.1913 E_angle  =     10915.0870 
E_dihed  =      5252.0456 E_impro  =       223.0432 E_vdwl   =     -2240.5923 
E_coul   =    210873.7432 E_long   =   -274191.3469 Press    =      -338.6690 
Volume   =    310019.1777 
---------------- Step      550 ----- CPU =     18.3660 (sec) ----------------
TotEng   =    -24816.9310 KinEng   =     21679.8561 Temp     =       302.3170 
PotEng   =    -46496.7871 E_bond   =      2554.5661 E_angle  =     11017.7197 
E_dihed  =      5205.5094 E_impro  =       237.6200 E_vdwl   =     -2127.1520 
E_coul   =    210835.0240 E_long   =   -274220.0742 Press    =       334.6365 
Volume   =    309959.7941 
---------------- Step      600 ----- CPU =     20.1061 (sec) ----------------
TotEng   =    -24739.1699 KinEng   =     21787.2787 Temp     =       303.8150 
PotEng   =    -46526.4486 E_bond   =      2545.9206 E_angle  =     11066.9422 
E_dihed  =      5266.4714 E_impro  =       234.4569 E_vdwl   =     -2156.2488 
E_coul   =    210730.0359 E_long   =   -274214.0269 Press    =       134.1295 
Volume   =    309906.1442 
Loop time of 20.1062 on 8 procs for 600 steps with 32000 atoms

Performance: 5.157 ns/day, 4.654 hours/ns, 29.842 timesteps/s
72.8% CPU use with 8 MPI tasks x 1 OpenMP threads

MPI task timing breakdown:
Section |  min time  |  avg time  |  max time  |%varavg| %total
---------------------------------------------------------------
Pair    | 4.2629     | 5.4064     | 9.5488     |  81.5 | 26.89
Bond    | 0.22183    | 0.24761    | 0.32255    |   6.0 |  1.23
Kspace  | 6.6463     | 10.817     | 11.996     |  57.8 | 53.80
Neigh   | 1.7961     | 1.8044     | 1.8126     |   0.6 |  8.97
Comm    | 0.62188    | 0.67447    | 0.72434    |   4.9 |  3.35
Output  | 0.020467   | 0.0205     | 0.020716   |   0.1 |  0.10
Modify  | 0.99604    | 1.038      | 1.0726     |   2.7 |  5.16
Other   |            | 0.09775    |            |       |  0.49

Nlocal:           4000 ave        4064 max        3943 min
Histogram: 2 1 1 0 0 1 0 1 0 2
Nghost:        16009.8 ave       16061 max       15963 min
Histogram: 1 0 1 2 0 0 3 0 0 1
Neighs:    1.49496e+06 ave 1.53406e+06 max 1.45698e+06 min
Histogram: 2 0 1 0 1 0 1 1 1 1

Total # of neighbors = 11959658
Ave neighs/atom = 373.73931
Ave special neighs/atom = 7.431875
Neighbor list builds = 66
Dangerous builds = 0
Total wall time: 0:00:21
Intel(R) VTune(TM) Profiler 2022.2.0 collection completed successfully. Use the "aps --report /home/ubuntu/lammps/bench/aps_result_20220531" command to generate textual and HTML reports for the profiling session.
