LAMMPS (7 Jan 2022)
  using 1 OpenMP thread(s) per MPI task
Reading data file ...
  orthogonal box = (-27.5 -38.5 -36.3646) to (27.5 38.5 36.3615)
  2 by 4 by 2 MPI processor grid
  reading atoms ...
  32000 atoms
  reading velocities ...
  32000 velocities
  scanning bonds ...
  4 = max bonds/atom
  scanning angles ...
  8 = max angles/atom
  scanning dihedrals ...
  18 = max dihedrals/atom
  scanning impropers ...
  2 = max impropers/atom
  reading bonds ...
  27723 bonds
  reading angles ...
  40467 angles
  reading dihedrals ...
  56829 dihedrals
  reading impropers ...
  1034 impropers
Finding 1-2 1-3 1-4 neighbors ...
  special bond factors lj:    0        0        0       
  special bond factors coul:  0        0        0       
     4 = max # of 1-2 neighbors
    12 = max # of 1-3 neighbors
    24 = max # of 1-4 neighbors
    26 = max # of special neighbors
  special bonds CPU = 0.202 seconds
  read_data CPU = 0.819 seconds
Replicating atoms ...
  orthogonal box = (-27.5 -38.5 -36.3646) to (192.5 269.5 254.5398)
  2 by 4 by 2 MPI processor grid
  2048000 atoms
  1774272 bonds
  2589888 angles
  3637056 dihedrals
  66176 impropers
Finding 1-2 1-3 1-4 neighbors ...
  special bond factors lj:    0        0        0       
  special bond factors coul:  0        0        0       
     4 = max # of 1-2 neighbors
    12 = max # of 1-3 neighbors
    24 = max # of 1-4 neighbors
    26 = max # of special neighbors
  special bonds CPU = 0.362 seconds
  replicate CPU = 0.551 seconds
Finding SHAKE clusters ...
  103488 = # of size 2 clusters
  232512 = # of size 3 clusters
   47808 = # of size 4 clusters
  270912 = # of frozen angles
  find clusters CPU = 0.166 seconds
PPPM initialization ...
  using 12-bit tables for long-range coulomb (../kspace.cpp:340)
  G vector (1/distance) = 0.25045586
  grid = 90 120 120
  stencil order = 7
  estimated absolute RMS force accuracy = 0.032785255
  estimated relative force accuracy = 9.8731821e-05
  using single precision MKL FFT
  3d grid and FFT values/proc = 128908 86400
----------------------------------------------------------
Using INTEL Package without Coprocessor.
Compiler: Intel Classic C++ 20.21.5 / Intel(R) C++ g++ 9.3 mode
SIMD compiler directives: Enabled
Precision: double
----------------------------------------------------------
  generated 2278 of 2278 mixed pair_coeff terms from arithmetic mixing rule
Neighbor list info ...
  update every 1 steps, delay 5 steps, check yes
  max neighbors/atom: 2000, page size: 100000
  master list distance cutoff = 12
  ghost atom cutoff = 12
  binsize = 6, bins = 37 52 49
  1 neighbor lists, perpetual/occasional/extra = 1 0 0
  (1) pair lj/charmm/coul/long/intel, perpetual
      attributes: half, newton on, intel
      pair build: half/bin/newton/intel
      stencil: half/bin/3d
      bin: intel
Setting up Verlet run ...
  Unit style    : real
  Current step  : 0
  Time step     : 2
Per MPI rank memory allocation (min/avg/max) = 1386 | 1386 | 1386 Mbytes
---------------- Step        0 ----- CPU =      0.0000 (sec) ----------------
TotEng   =  -1622906.8423 KinEng   =   1372469.2022 Temp     =       299.0274 
PotEng   =  -2995376.0445 E_bond   =    162431.6167 E_angle  =    698967.9493 
E_dihed  =    333554.3360 E_impro  =     13664.7415 E_vdwl   =   -147703.2586 
E_coul   =  13362009.9434 E_long   = -17418301.3727 Press    =      -148.3946 
Volume   =  19711682.1440 
---------------- Step       50 ----- CPU =     37.2363 (sec) ----------------
TotEng   =  -1621176.9765 KinEng   =   1376066.9954 Temp     =       299.8113 
PotEng   =  -2997243.9719 E_bond   =    158193.1804 E_angle  =    693548.1605 
E_dihed  =    335339.0123 E_impro  =     14536.1171 E_vdwl   =   -127559.3372 
E_coul   =  13347440.9777 E_long   = -17418742.0827 Press    =       238.9838 
Volume   =  19714046.1116 
---------------- Step      100 ----- CPU =     75.6235 (sec) ----------------
TotEng   =  -1618550.5290 KinEng   =   1381767.5831 Temp     =       301.0533 
PotEng   =  -3000318.1121 E_bond   =    164353.2060 E_angle  =    690067.4426 
E_dihed  =    332721.6860 E_impro  =     13873.1488 E_vdwl   =   -121548.0157 
E_coul   =  13338623.0821 E_long   = -17418408.6619 Press    =        13.8078 
Volume   =  19720672.1050 
Loop time of 75.6996 on 16 procs for 100 steps with 2048000 atoms

Performance: 0.228 ns/day, 105.138 hours/ns, 1.321 timesteps/s
82.4% CPU use with 16 MPI tasks x 1 OpenMP threads

MPI task timing breakdown:
Section |  min time  |  avg time  |  max time  |%varavg| %total
---------------------------------------------------------------
Pair    | 22.955     | 25.973     | 46.026     | 148.6 | 34.31
Bond    | 1.3044     | 1.4911     | 2.5704     |  33.0 |  1.97
Kspace  | 12.105     | 33.225     | 36.518     | 138.2 | 43.89
Neigh   | 4.9573     | 5.0324     | 5.0546     |   1.3 |  6.65
Comm    | 2.684      | 2.9755     | 3.2121     |   9.3 |  3.93
Output  | 0.17224    | 0.19417    | 0.20419    |   2.2 |  0.26
Modify  | 5.8674     | 6.0339     | 6.4811     |   6.1 |  7.97
Other   |            | 0.7744     |            |       |  1.02

Nlocal:         128000 ave      128000 max      128000 min
Histogram: 16 0 0 0 0 0 0 0 0 0
Nghost:         109937 ave      109937 max      109937 min
Histogram: 16 0 0 0 0 0 0 0 0 0
Neighs:    4.81121e+07 ave 4.81927e+07 max 4.80284e+07 min
Histogram: 4 0 0 4 0 0 4 0 0 4

Total # of neighbors = 7.6979408e+08
Ave neighs/atom = 375.87602
Ave special neighs/atom = 7.431875
Neighbor list builds = 11
Dangerous builds = 0
Total wall time: 0:01:19
Intel(R) VTune(TM) Profiler 2022.2.0 collection completed successfully. Use the "aps --report /home/ubuntu/lammps/bench/aps_result_20220531" command to generate textual and HTML reports for the profiling session.
