LAMMPS (7 Jan 2022)
  using 1 OpenMP thread(s) per MPI task
Reading data file ...
  orthogonal box = (-27.5 -38.5 -36.3646) to (27.5 38.5 36.3615)
  1 by 2 by 2 MPI processor grid
  reading atoms ...
  32000 atoms
  reading velocities ...
  32000 velocities
  scanning bonds ...
  4 = max bonds/atom
  scanning angles ...
  8 = max angles/atom
  scanning dihedrals ...
  18 = max dihedrals/atom
  scanning impropers ...
  2 = max impropers/atom
  reading bonds ...
  27723 bonds
  reading angles ...
  40467 angles
  reading dihedrals ...
  56829 dihedrals
  reading impropers ...
  1034 impropers
Finding 1-2 1-3 1-4 neighbors ...
  special bond factors lj:    0        0        0       
  special bond factors coul:  0        0        0       
     4 = max # of 1-2 neighbors
    12 = max # of 1-3 neighbors
    24 = max # of 1-4 neighbors
    26 = max # of special neighbors
  special bonds CPU = 0.006 seconds
  read_data CPU = 0.232 seconds
Finding SHAKE clusters ...
    1617 = # of size 2 clusters
    3633 = # of size 3 clusters
     747 = # of size 4 clusters
    4233 = # of frozen angles
  find clusters CPU = 0.003 seconds
PPPM initialization ...
  using 12-bit tables for long-range coulomb (../kspace.cpp:340)
  G vector (1/distance) = 0.25235202
  grid = 24 30 30
  stencil order = 7
  estimated absolute RMS force accuracy = 0.029803316
  estimated relative force accuracy = 8.9751802e-05
  using single precision MKL FFT
  3d grid and FFT values/proc = 15004 5760
----------------------------------------------------------
Using INTEL Package without Coprocessor.
Compiler: Intel Classic C++ 20.21.5 / Intel(R) C++ g++ 9.3 mode
SIMD compiler directives: Enabled
Precision: double
----------------------------------------------------------
  generated 2278 of 2278 mixed pair_coeff terms from arithmetic mixing rule
Neighbor list info ...
  update every 1 steps, delay 5 steps, check yes
  max neighbors/atom: 2000, page size: 100000
  master list distance cutoff = 12
  ghost atom cutoff = 12
  binsize = 6, bins = 10 13 13
  1 neighbor lists, perpetual/occasional/extra = 1 0 0
  (1) pair lj/charmm/coul/long/intel, perpetual
      attributes: half, newton on, intel
      pair build: half/bin/newton/intel
      stencil: half/bin/3d
      bin: intel
Setting up Verlet run ...
  Unit style    : real
  Current step  : 0
  Time step     : 2
Per MPI rank memory allocation (min/avg/max) = 107.1 | 107.5 | 108.7 Mbytes
---------------- Step        0 ----- CPU =      0.0000 (sec) ----------------
TotEng   =    -25358.1836 KinEng   =     21444.8313 Temp     =       299.0397 
PotEng   =    -46803.0149 E_bond   =      2537.9940 E_angle  =     10921.3742 
E_dihed  =      5211.7865 E_impro  =       213.5116 E_vdwl   =     -2307.8634 
E_coul   =    210834.7465 E_long   =   -274214.5643 Press    =      -148.6832 
Volume   =    307995.0335 
---------------- Step       50 ----- CPU =      1.4169 (sec) ----------------
TotEng   =    -25332.0985 KinEng   =     21500.5283 Temp     =       299.8163 
PotEng   =    -46832.6268 E_bond   =      2471.7255 E_angle  =     10836.5740 
E_dihed  =      5239.6303 E_impro  =       227.1249 E_vdwl   =     -1993.0708 
E_coul   =    210607.0563 E_long   =   -274221.6670 Press    =       238.8087 
Volume   =    308031.9413 
---------------- Step      100 ----- CPU =      2.8075 (sec) ----------------
TotEng   =    -25292.3471 KinEng   =     21588.2624 Temp     =       301.0398 
PotEng   =    -46880.6095 E_bond   =      2567.8630 E_angle  =     10781.8369 
E_dihed  =      5198.6638 E_impro  =       216.7594 E_vdwl   =     -1899.0508 
E_coul   =    210469.8153 E_long   =   -274216.4970 Press    =        14.2746 
Volume   =    308135.3277 
---------------- Step      150 ----- CPU =      3.9095 (sec) ----------------
TotEng   =    -25260.1929 KinEng   =     21534.2708 Temp     =       300.2869 
PotEng   =    -46794.4636 E_bond   =      2556.6711 E_angle  =     10854.0679 
E_dihed  =      5264.4336 E_impro  =       203.0077 E_vdwl   =     -2074.2584 
E_coul   =    210607.9850 E_long   =   -274206.3706 Press    =       244.0360 
Volume   =    308518.6168 
---------------- Step      200 ----- CPU =      4.9693 (sec) ----------------
TotEng   =    -25078.6862 KinEng   =     21540.6136 Temp     =       300.3753 
PotEng   =    -46619.2998 E_bond   =      2489.4024 E_angle  =     11075.6889 
E_dihed  =      5221.5613 E_impro  =       232.4434 E_vdwl   =     -2148.5532 
E_coul   =    210715.5175 E_long   =   -274205.3601 Press    =        40.7423 
Volume   =    308999.3938 
---------------- Step      250 ----- CPU =      6.0396 (sec) ----------------
TotEng   =    -24960.7525 KinEng   =     21534.0161 Temp     =       300.2833 
PotEng   =    -46494.7685 E_bond   =      2541.4822 E_angle  =     11095.3917 
E_dihed  =      5245.3587 E_impro  =       213.3938 E_vdwl   =     -2166.1057 
E_coul   =    210798.6143 E_long   =   -274222.9034 Press    =      -156.8911 
Volume   =    309392.3821 
---------------- Step      300 ----- CPU =      7.0902 (sec) ----------------
TotEng   =    -25028.5716 KinEng   =     21517.2512 Temp     =       300.0495 
PotEng   =    -46545.8228 E_bond   =      2560.4519 E_angle  =     10926.6144 
E_dihed  =      5223.1508 E_impro  =       224.4945 E_vdwl   =     -2170.3999 
E_coul   =    210897.2013 E_long   =   -274207.3358 Press    =      -383.7017 
Volume   =    309703.6097 
---------------- Step      350 ----- CPU =      8.1555 (sec) ----------------
TotEng   =    -25144.3453 KinEng   =     21599.4212 Temp     =       301.1954 
PotEng   =    -46743.7665 E_bond   =      2580.5389 E_angle  =     10956.6926 
E_dihed  =      5253.1574 E_impro  =       209.1160 E_vdwl   =     -2051.0995 
E_coul   =    210529.4828 E_long   =   -274221.6548 Press    =      -329.6646 
Volume   =    309846.2843 
---------------- Step      400 ----- CPU =      9.2034 (sec) ----------------
TotEng   =    -25304.2561 KinEng   =     21368.2183 Temp     =       297.9713 
PotEng   =    -46672.4743 E_bond   =      2542.3054 E_angle  =     10924.1839 
E_dihed  =      5215.3527 E_impro  =       214.0113 E_vdwl   =     -1948.2036 
E_coul   =    210591.4493 E_long   =   -274211.5734 Press    =       303.4142 
Volume   =    309889.9491 
---------------- Step      450 ----- CPU =     10.2673 (sec) ----------------
TotEng   =    -25356.8959 KinEng   =     21437.6441 Temp     =       298.9395 
PotEng   =    -46794.5400 E_bond   =      2491.0947 E_angle  =     10907.6527 
E_dihed  =      5261.4547 E_impro  =       225.5595 E_vdwl   =     -2159.2377 
E_coul   =    210695.1994 E_long   =   -274216.2633 Press    =       221.0095 
Volume   =    309992.8350 
---------------- Step      500 ----- CPU =     11.3155 (sec) ----------------
TotEng   =    -25112.2248 KinEng   =     21455.4959 Temp     =       299.1884 
PotEng   =    -46567.7207 E_bond   =      2590.0580 E_angle  =     10933.0501 
E_dihed  =      5250.9492 E_impro  =       223.0023 E_vdwl   =     -2319.4626 
E_coul   =    210949.0905 E_long   =   -274194.4082 Press    =      -396.4740 
Volume   =    310055.3514 
---------------- Step      550 ----- CPU =     12.3647 (sec) ----------------
TotEng   =    -24809.0908 KinEng   =     21697.5632 Temp     =       302.5639 
PotEng   =    -46506.6540 E_bond   =      2549.6298 E_angle  =     10995.7716 
E_dihed  =      5205.9727 E_impro  =       239.2080 E_vdwl   =     -2141.1320 
E_coul   =    210855.4891 E_long   =   -274211.5933 Press    =       293.7671 
Volume   =    309990.0284 
---------------- Step      600 ----- CPU =     13.4200 (sec) ----------------
TotEng   =    -24720.8004 KinEng   =     21743.7989 Temp     =       303.2087 
PotEng   =    -46464.5993 E_bond   =      2535.5807 E_angle  =     11056.8924 
E_dihed  =      5294.6066 E_impro  =       226.1057 E_vdwl   =     -2126.0469 
E_coul   =    210759.3474 E_long   =   -274211.0853 Press    =       234.3894 
Volume   =    309928.0659 
Loop time of 13.4201 on 4 procs for 600 steps with 32000 atoms

Performance: 7.726 ns/day, 3.107 hours/ns, 44.709 timesteps/s
99.3% CPU use with 4 MPI tasks x 1 OpenMP threads

MPI task timing breakdown:
Section |  min time  |  avg time  |  max time  |%varavg| %total
---------------------------------------------------------------
Pair    | 8.809      | 8.9408     | 9.0913     |   3.6 | 66.62
Bond    | 0.45894    | 0.47992    | 0.51185    |   2.9 |  3.58
Kspace  | 1.8007     | 1.9519     | 2.1062     |   7.9 | 14.54
Neigh   | 0.93505    | 0.93534    | 0.93557    |   0.0 |  6.97
Comm    | 0.33541    | 0.34126    | 0.34575    |   0.8 |  2.54
Output  | 0.00063537 | 0.00069381 | 0.0008648  |   0.0 |  0.01
Modify  | 0.71351    | 0.72797    | 0.74289    |   1.6 |  5.42
Other   |            | 0.04226    |            |       |  0.31

Nlocal:           8000 ave        8115 max        7871 min
Histogram: 1 0 0 1 0 0 0 0 1 1
Nghost:        22673.8 ave       22792 max       22604 min
Histogram: 1 0 2 0 0 0 0 0 0 1
Neighs:     2.9893e+06 ave 3.05508e+06 max 2.92533e+06 min
Histogram: 1 0 1 0 0 0 0 1 0 1

Total # of neighbors = 11957183
Ave neighs/atom = 373.66197
Ave special neighs/atom = 7.431875
Neighbor list builds = 65
Dangerous builds = 0
Total wall time: 0:00:13
Intel(R) VTune(TM) Profiler 2022.2.0 collection completed successfully. Use the "aps --report /home/ubuntu/lammps/bench/aps_result_20220601" command to generate textual and HTML reports for the profiling session.
