LAMMPS (7 Jan 2022)
  using 1 OpenMP thread(s) per MPI task
Reading data file ...
  orthogonal box = (-27.5 -38.5 -36.3646) to (27.5 38.5 36.3615)
  1 by 2 by 2 MPI processor grid
  reading atoms ...
  32000 atoms
  reading velocities ...
  32000 velocities
  scanning bonds ...
  4 = max bonds/atom
  scanning angles ...
  8 = max angles/atom
  scanning dihedrals ...
  18 = max dihedrals/atom
  scanning impropers ...
  2 = max impropers/atom
  reading bonds ...
  27723 bonds
  reading angles ...
  40467 angles
  reading dihedrals ...
  56829 dihedrals
  reading impropers ...
  1034 impropers
Finding 1-2 1-3 1-4 neighbors ...
  special bond factors lj:    0        0        0       
  special bond factors coul:  0        0        0       
     4 = max # of 1-2 neighbors
    12 = max # of 1-3 neighbors
    24 = max # of 1-4 neighbors
    26 = max # of special neighbors
  special bonds CPU = 0.028 seconds
  read_data CPU = 1.129 seconds
Replicating atoms ...
  orthogonal box = (-27.5 -38.5 -36.3646) to (82.5 115.5 109.0876)
  1 by 2 by 2 MPI processor grid
  256000 atoms
  221784 bonds
  323736 angles
  454632 dihedrals
  8272 impropers
Finding 1-2 1-3 1-4 neighbors ...
  special bond factors lj:    0        0        0       
  special bond factors coul:  0        0        0       
     4 = max # of 1-2 neighbors
    12 = max # of 1-3 neighbors
    24 = max # of 1-4 neighbors
    26 = max # of special neighbors
  special bonds CPU = 0.116 seconds
  replicate CPU = 0.233 seconds
Finding SHAKE clusters ...
   12936 = # of size 2 clusters
   29064 = # of size 3 clusters
    5976 = # of size 4 clusters
   33864 = # of frozen angles
  find clusters CPU = 0.071 seconds
PPPM initialization ...
  using 12-bit tables for long-range coulomb (../kspace.cpp:340)
  G vector (1/distance) = 0.25045586
  grid = 45 60 60
  stencil order = 7
  estimated absolute RMS force accuracy = 0.032785255
  estimated relative force accuracy = 9.8731821e-05
  using single precision MKL FFT
  3d grid and FFT values/proc = 71188 40500
----------------------------------------------------------
Using INTEL Package without Coprocessor.
Compiler: Intel Classic C++ 20.21.5 / Intel(R) C++ g++ 9.3 mode
SIMD compiler directives: Enabled
Precision: double
----------------------------------------------------------
  generated 2278 of 2278 mixed pair_coeff terms from arithmetic mixing rule
Neighbor list info ...
  update every 1 steps, delay 5 steps, check yes
  max neighbors/atom: 2000, page size: 100000
  master list distance cutoff = 12
  ghost atom cutoff = 12
  binsize = 6, bins = 19 26 25
  1 neighbor lists, perpetual/occasional/extra = 1 0 0
  (1) pair lj/charmm/coul/long/intel, perpetual
      attributes: half, newton on, intel
      pair build: half/bin/newton/intel
      stencil: half/bin/3d
      bin: intel
Setting up Verlet run ...
  Unit style    : real
  Current step  : 0
  Time step     : 2
Per MPI rank memory allocation (min/avg/max) = 720.4 | 720.4 | 720.4 Mbytes
---------------- Step        0 ----- CPU =      0.0000 (sec) ----------------
TotEng   =   -202863.3552 KinEng   =    171558.6503 Temp     =       299.0288 
PotEng   =   -374422.0055 E_bond   =     20303.9521 E_angle  =     87370.9937 
E_dihed  =     41694.2920 E_impro  =      1708.0927 E_vdwl   =    -18462.9073 
E_coul   =   1670251.2429 E_long   =  -2177287.6715 Press    =      -148.3946 
Volume   =   2463960.2680 
---------------- Step       50 ----- CPU =     20.6298 (sec) ----------------
TotEng   =   -202647.8295 KinEng   =    172007.9898 Temp     =       299.8120 
PotEng   =   -374655.8194 E_bond   =     19774.1153 E_angle  =     86693.3893 
E_dihed  =     41917.3548 E_impro  =      1817.0112 E_vdwl   =    -15944.9636 
E_coul   =   1668430.0366 E_long   =  -2177342.7631 Press    =       238.9746 
Volume   =   2464255.7582 
---------------- Step      100 ----- CPU =     43.6055 (sec) ----------------
TotEng   =   -202321.0700 KinEng   =    172719.8584 Temp     =       301.0528 
PotEng   =   -375040.9284 E_bond   =     20544.0500 E_angle  =     86258.0220 
E_dihed  =     41590.1327 E_impro  =      1734.1350 E_vdwl   =    -15193.5921 
E_coul   =   1667327.4591 E_long   =  -2177301.1350 Press    =        13.7769 
Volume   =   2465083.9375 
Loop time of 43.6056 on 4 procs for 100 steps with 256000 atoms

Performance: 0.396 ns/day, 60.563 hours/ns, 2.293 timesteps/s
66.3% CPU use with 4 MPI tasks x 1 OpenMP threads

MPI task timing breakdown:
Section |  min time  |  avg time  |  max time  |%varavg| %total
---------------------------------------------------------------
Pair    | 11.487     | 17.203     | 23.066     | 137.0 | 39.45
Bond    | 0.60974    | 0.9203     | 1.4296     |  35.4 |  2.11
Kspace  | 8.929      | 14.998     | 21.102     | 153.3 | 34.39
Neigh   | 2.7606     | 2.8011     | 2.8406     |   1.9 |  6.42
Comm    | 1.9545     | 2.2575     | 2.669      |  17.4 |  5.18
Output  | 0.00028022 | 0.00030661 | 0.00036319 |   0.0 |  0.00
Modify  | 4.538      | 4.745      | 4.919      |   6.5 | 10.88
Other   |            | 0.6806     |            |       |  1.56

Nlocal:          64000 ave       64000 max       64000 min
Histogram: 4 0 0 0 0 0 0 0 0 0
Nghost:          71599 ave       71599 max       71599 min
Histogram: 4 0 0 0 0 0 0 0 0 0
Neighs:    2.40561e+07 ave 2.41142e+07 max 2.39979e+07 min
Histogram: 2 0 0 0 0 0 0 0 0 2

Total # of neighbors = 96224286
Ave neighs/atom = 375.87612
Ave special neighs/atom = 7.431875
Neighbor list builds = 11
Dangerous builds = 0
Total wall time: 0:00:46
Intel(R) VTune(TM) Profiler 2022.2.0 collection completed successfully. Use the "aps --report /home/ubuntu/lammps/bench/aps_result_20220531" command to generate textual and HTML reports for the profiling session.
