LAMMPS (7 Jan 2022)
  using 1 OpenMP thread(s) per MPI task
Reading data file ...
  orthogonal box = (-27.5 -38.5 -36.3646) to (27.5 38.5 36.3615)
  4 by 4 by 4 MPI processor grid
  reading atoms ...
  32000 atoms
  reading velocities ...
  32000 velocities
  scanning bonds ...
  4 = max bonds/atom
  scanning angles ...
  8 = max angles/atom
  scanning dihedrals ...
  18 = max dihedrals/atom
  scanning impropers ...
  2 = max impropers/atom
  reading bonds ...
  27723 bonds
  reading angles ...
  40467 angles
  reading dihedrals ...
  56829 dihedrals
  reading impropers ...
  1034 impropers
Finding 1-2 1-3 1-4 neighbors ...
  special bond factors lj:    0        0        0       
  special bond factors coul:  0        0        0       
     4 = max # of 1-2 neighbors
    12 = max # of 1-3 neighbors
    24 = max # of 1-4 neighbors
    26 = max # of special neighbors
  special bonds CPU = 0.017 seconds
  read_data CPU = 0.234 seconds
Finding SHAKE clusters ...
    1617 = # of size 2 clusters
    3633 = # of size 3 clusters
     747 = # of size 4 clusters
    4233 = # of frozen angles
  find clusters CPU = 0.015 seconds
PPPM initialization ...
  using 12-bit tables for long-range coulomb (../kspace.cpp:340)
  G vector (1/distance) = 0.25235202
  grid = 24 30 30
  stencil order = 7
  estimated absolute RMS force accuracy = 0.029803316
  estimated relative force accuracy = 8.9751802e-05
  using single precision MKL FFT
  3d grid and FFT values/proc = 2925 384
----------------------------------------------------------
Using INTEL Package without Coprocessor.
Compiler: Intel Classic C++ 20.21.5 / Intel(R) C++ g++ 9.3 mode
SIMD compiler directives: Enabled
Precision: mixed
----------------------------------------------------------
  generated 2278 of 2278 mixed pair_coeff terms from arithmetic mixing rule
Neighbor list info ...
  update every 1 steps, delay 5 steps, check yes
  max neighbors/atom: 2000, page size: 100000
  master list distance cutoff = 12
  ghost atom cutoff = 12
  binsize = 6, bins = 10 13 13
  1 neighbor lists, perpetual/occasional/extra = 1 0 0
  (1) pair lj/charmm/coul/long/intel, perpetual
      attributes: half, newton on, intel
      pair build: half/bin/newton/intel
      stencil: half/bin/3d
      bin: intel
Setting up Verlet run ...
  Unit style    : real
  Current step  : 0
  Time step     : 2
Per MPI rank memory allocation (min/avg/max) = 22.81 | 23.22 | 23.8 Mbytes
---------------- Step        0 ----- CPU =      0.0000 (sec) ----------------
TotEng   =    -25358.1688 KinEng   =     21444.8313 Temp     =       299.0397 
PotEng   =    -46803.0001 E_bond   =      2537.9950 E_angle  =     10921.3721 
E_dihed  =      5211.7865 E_impro  =       213.5135 E_vdwl   =     -2307.8639 
E_coul   =    210834.7640 E_long   =   -274214.5673 Press    =      -148.7000 
Volume   =    307995.0335 
---------------- Step       50 ----- CPU =      0.1169 (sec) ----------------
TotEng   =    -25332.1070 KinEng   =     21500.5436 Temp     =       299.8166 
PotEng   =    -46832.6505 E_bond   =      2471.7300 E_angle  =     10836.5723 
E_dihed  =      5239.6322 E_impro  =       227.1123 E_vdwl   =     -1993.0605 
E_coul   =    210607.0395 E_long   =   -274221.6763 Press    =       238.8141 
Volume   =    308031.9401 
---------------- Step      100 ----- CPU =      0.2280 (sec) ----------------
TotEng   =    -25292.3414 KinEng   =     21588.2477 Temp     =       301.0396 
PotEng   =    -46880.5891 E_bond   =      2567.8663 E_angle  =     10781.8516 
E_dihed  =      5198.6656 E_impro  =       216.7541 E_vdwl   =     -1899.0565 
E_coul   =    210469.7944 E_long   =   -274216.4647 Press    =        14.2895 
Volume   =    308135.3251 
---------------- Step      150 ----- CPU =      0.3384 (sec) ----------------
TotEng   =    -25260.1339 KinEng   =     21534.2244 Temp     =       300.2862 
PotEng   =    -46794.3583 E_bond   =      2556.6688 E_angle  =     10854.0662 
E_dihed  =      5264.4368 E_impro  =       203.0038 E_vdwl   =     -2074.2545 
E_coul   =    210608.0884 E_long   =   -274206.3679 Press    =       243.9853 
Volume   =    308518.6139 
---------------- Step      200 ----- CPU =      0.4478 (sec) ----------------
TotEng   =    -25078.6927 KinEng   =     21540.7889 Temp     =       300.3778 
PotEng   =    -46619.4816 E_bond   =      2489.3540 E_angle  =     11075.6637 
E_dihed  =      5221.5512 E_impro  =       232.4496 E_vdwl   =     -2148.3102 
E_coul   =    210715.2386 E_long   =   -274205.4285 Press    =        41.1034 
Volume   =    308999.4142 
---------------- Step      250 ----- CPU =      0.5575 (sec) ----------------
TotEng   =    -24960.8528 KinEng   =     21535.3172 Temp     =       300.3015 
PotEng   =    -46496.1700 E_bond   =      2541.5254 E_angle  =     11095.2707 
E_dihed  =      5245.4479 E_impro  =       213.4374 E_vdwl   =     -2163.9020 
E_coul   =    210795.1391 E_long   =   -274223.0884 Press    =      -155.5284 
Volume   =    309392.5435 
---------------- Step      300 ----- CPU =      0.6639 (sec) ----------------
TotEng   =    -25028.3361 KinEng   =     21520.5517 Temp     =       300.0956 
PotEng   =    -46548.8878 E_bond   =      2560.4801 E_angle  =     10925.5601 
E_dihed  =      5221.8307 E_impro  =       224.4039 E_vdwl   =     -2167.9603 
E_coul   =    210894.0698 E_long   =   -274207.2721 Press    =      -382.2209 
Volume   =    309705.8434 
---------------- Step      350 ----- CPU =      0.7720 (sec) ----------------
TotEng   =    -25145.3962 KinEng   =     21582.2417 Temp     =       300.9558 
PotEng   =    -46727.6379 E_bond   =      2580.6347 E_angle  =     10955.8377 
E_dihed  =      5252.0617 E_impro  =       209.7225 E_vdwl   =     -2027.0676 
E_coul   =    210522.5753 E_long   =   -274221.4024 Press    =      -320.5359 
Volume   =    309850.8757 
---------------- Step      400 ----- CPU =      0.8777 (sec) ----------------
TotEng   =    -25292.8587 KinEng   =     21404.6814 Temp     =       298.4798 
PotEng   =    -46697.5402 E_bond   =      2538.8322 E_angle  =     10925.0831 
E_dihed  =      5216.0472 E_impro  =       216.8607 E_vdwl   =     -1995.1768 
E_coul   =    210615.0414 E_long   =   -274214.2280 Press    =       257.9922 
Volume   =    309896.2715 
---------------- Step      450 ----- CPU =      0.9881 (sec) ----------------
TotEng   =    -25331.8281 KinEng   =     21414.1903 Temp     =       298.6124 
PotEng   =    -46746.0184 E_bond   =      2491.4386 E_angle  =     10902.6171 
E_dihed  =      5276.5350 E_impro  =       223.1801 E_vdwl   =     -2187.3242 
E_coul   =    210761.6003 E_long   =   -274214.0653 Press    =       170.8173 
Volume   =    310002.0189 
---------------- Step      500 ----- CPU =      1.0942 (sec) ----------------
TotEng   =    -25067.3891 KinEng   =     21594.1054 Temp     =       301.1212 
PotEng   =    -46661.4945 E_bond   =      2587.4569 E_angle  =     10906.2343 
E_dihed  =      5236.4985 E_impro  =       223.2532 E_vdwl   =     -2317.8192 
E_coul   =    210898.2000 E_long   =   -274195.3181 Press    =      -333.1274 
Volume   =    310046.1616 
---------------- Step      550 ----- CPU =      1.2023 (sec) ----------------
TotEng   =    -24809.4244 KinEng   =     21621.0276 Temp     =       301.4967 
PotEng   =    -46430.4520 E_bond   =      2558.1214 E_angle  =     10996.8957 
E_dihed  =      5211.8929 E_impro  =       240.2816 E_vdwl   =     -2068.7591 
E_coul   =    210838.9733 E_long   =   -274207.8578 Press    =       435.9590 
Volume   =    310008.3629 
---------------- Step      600 ----- CPU =      1.3101 (sec) ----------------
TotEng   =    -24769.1525 KinEng   =     21638.3591 Temp     =       301.7383 
PotEng   =    -46407.5116 E_bond   =      2528.3521 E_angle  =     11059.1367 
E_dihed  =      5277.7720 E_impro  =       220.5216 E_vdwl   =     -2134.8175 
E_coul   =    210854.8976 E_long   =   -274213.3741 Press    =       146.2389 
Volume   =    310044.5673 
---------------- Step      650 ----- CPU =      1.4171 (sec) ----------------
TotEng   =    -24970.5040 KinEng   =     21592.3062 Temp     =       301.0962 
PotEng   =    -46562.8101 E_bond   =      2505.4735 E_angle  =     10928.0398 
E_dihed  =      5236.0525 E_impro  =       205.1284 E_vdwl   =     -2150.4212 
E_coul   =    210926.7822 E_long   =   -274213.8654 Press    =      -132.4809 
Volume   =    310145.7750 
---------------- Step      700 ----- CPU =      1.5267 (sec) ----------------
TotEng   =    -25247.3627 KinEng   =     21590.8324 Temp     =       301.0756 
PotEng   =    -46838.1951 E_bond   =      2477.6991 E_angle  =     10924.7702 
E_dihed  =      5226.5938 E_impro  =       210.6331 E_vdwl   =     -2270.1946 
E_coul   =    210808.2482 E_long   =   -274215.9449 Press    =       102.9762 
Volume   =    310190.4016 
---------------- Step      750 ----- CPU =      1.6339 (sec) ----------------
TotEng   =    -25379.2034 KinEng   =     21330.7650 Temp     =       297.4491 
PotEng   =    -46709.9684 E_bond   =      2556.6551 E_angle  =     10930.2295 
E_dihed  =      5242.4299 E_impro  =       206.9337 E_vdwl   =     -2236.2167 
E_coul   =    210808.7138 E_long   =   -274218.7137 Press    =       -91.4333 
Volume   =    310142.0380 
---------------- Step      800 ----- CPU =      1.7403 (sec) ----------------
TotEng   =    -25159.2268 KinEng   =     21393.3223 Temp     =       298.3214 
PotEng   =    -46552.5491 E_bond   =      2550.6390 E_angle  =     11056.3546 
E_dihed  =      5227.5273 E_impro  =       221.2915 E_vdwl   =     -2156.3079 
E_coul   =    210758.1119 E_long   =   -274210.1654 Press    =       -30.3379 
Volume   =    310103.7120 
---------------- Step      850 ----- CPU =      1.8497 (sec) ----------------
TotEng   =    -24761.8681 KinEng   =     21669.9585 Temp     =       302.1790 
PotEng   =    -46431.8267 E_bond   =      2563.0083 E_angle  =     11132.5511 
E_dihed  =      5259.8201 E_impro  =       203.9649 E_vdwl   =     -2215.3935 
E_coul   =    210836.0129 E_long   =   -274211.7905 Press    =       273.1270 
Volume   =    309871.4950 
---------------- Step      900 ----- CPU =      1.9576 (sec) ----------------
TotEng   =    -24595.9919 KinEng   =     21672.3478 Temp     =       302.2123 
PotEng   =    -46268.3397 E_bond   =      2543.1397 E_angle  =     11103.8331 
E_dihed  =      5332.0875 E_impro  =       242.8760 E_vdwl   =     -2087.8355 
E_coul   =    210809.9514 E_long   =   -274212.3919 Press    =       172.1215 
Volume   =    309749.0468 
---------------- Step      950 ----- CPU =      2.0675 (sec) ----------------
TotEng   =    -24826.6498 KinEng   =     21669.1658 Temp     =       302.1679 
PotEng   =    -46495.8156 E_bond   =      2557.6368 E_angle  =     10973.0303 
E_dihed  =      5267.9416 E_impro  =       235.2578 E_vdwl   =     -2089.0630 
E_coul   =    210753.4853 E_long   =   -274194.1045 Press    =       -82.2725 
Volume   =    309819.4362 
---------------- Step     1000 ----- CPU =      2.1733 (sec) ----------------
TotEng   =    -25252.5053 KinEng   =     21388.5867 Temp     =       298.2554 
PotEng   =    -46641.0920 E_bond   =      2535.1799 E_angle  =     10994.0116 
E_dihed  =      5257.6720 E_impro  =       211.9721 E_vdwl   =     -2192.1921 
E_coul   =    210760.0486 E_long   =   -274207.7841 Press    =       -65.6001 
Volume   =    309988.7680 
---------------- Step     1050 ----- CPU =      2.2836 (sec) ----------------
TotEng   =    -25398.7763 KinEng   =     21235.1141 Temp     =       296.1153 
PotEng   =    -46633.8904 E_bond   =      2536.7959 E_angle  =     10963.2135 
E_dihed  =      5234.7599 E_impro  =       214.1840 E_vdwl   =     -2107.2632 
E_coul   =    210736.2765 E_long   =   -274211.8569 Press    =      -144.2555 
Volume   =    310150.3573 
---------------- Step     1100 ----- CPU =      2.3907 (sec) ----------------
TotEng   =    -25142.5593 KinEng   =     21600.4207 Temp     =       301.2093 
PotEng   =    -46742.9800 E_bond   =      2548.6892 E_angle  =     10913.4762 
E_dihed  =      5211.7412 E_impro  =       213.4695 E_vdwl   =     -2264.9860 
E_coul   =    210853.6199 E_long   =   -274218.9899 Press    =      -417.5734 
Volume   =    310217.1044 
---------------- Step     1150 ----- CPU =      2.4979 (sec) ----------------
TotEng   =    -24803.3790 KinEng   =     21651.1767 Temp     =       301.9171 
PotEng   =    -46454.5558 E_bond   =      2597.7587 E_angle  =     11099.7800 
E_dihed  =      5208.0609 E_impro  =       206.1626 E_vdwl   =     -1959.2976 
E_coul   =    210600.2575 E_long   =   -274207.2778 Press    =      -122.6105 
Volume   =    310166.0102 
---------------- Step     1200 ----- CPU =      2.6098 (sec) ----------------
TotEng   =    -24756.3468 KinEng   =     21721.2713 Temp     =       302.8945 
PotEng   =    -46477.6181 E_bond   =      2555.4557 E_angle  =     10818.5169 
E_dihed  =      5287.1315 E_impro  =       233.3908 E_vdwl   =     -2075.0916 
E_coul   =    210920.9933 E_long   =   -274218.0146 Press    =       213.1224 
Volume   =    310156.4623 
---------------- Step     1250 ----- CPU =      2.7212 (sec) ----------------
TotEng   =    -24983.7819 KinEng   =     21566.6462 Temp     =       300.7383 
PotEng   =    -46550.4281 E_bond   =      2559.8926 E_angle  =     10957.4076 
E_dihed  =      5254.2185 E_impro  =       220.3883 E_vdwl   =     -2122.1540 
E_coul   =    210791.1253 E_long   =   -274211.3064 Press    =       240.6857 
Volume   =    310284.1895 
---------------- Step     1300 ----- CPU =      2.8308 (sec) ----------------
TotEng   =    -25166.8920 KinEng   =     21334.4597 Temp     =       297.5006 
PotEng   =    -46501.3517 E_bond   =      2566.6937 E_angle  =     11068.3104 
E_dihed  =      5304.1696 E_impro  =       205.0741 E_vdwl   =     -2310.7461 
E_coul   =    210873.0490 E_long   =   -274207.9023 Press    =      -461.0945 
Volume   =    310394.3382 
---------------- Step     1350 ----- CPU =      2.9396 (sec) ----------------
TotEng   =    -25108.5392 KinEng   =     21516.8934 Temp     =       300.0446 
PotEng   =    -46625.4326 E_bond   =      2583.7721 E_angle  =     10872.7324 
E_dihed  =      5278.8880 E_impro  =       215.0642 E_vdwl   =     -2212.4536 
E_coul   =    210837.2392 E_long   =   -274200.6748 Press    =      -369.8840 
Volume   =    310394.5541 
---------------- Step     1400 ----- CPU =      3.0468 (sec) ----------------
TotEng   =    -24885.2936 KinEng   =     21516.2239 Temp     =       300.0352 
PotEng   =    -46401.5175 E_bond   =      2563.0268 E_angle  =     11031.6314 
E_dihed  =      5287.9508 E_impro  =       218.5873 E_vdwl   =     -2181.7771 
E_coul   =    210888.8421 E_long   =   -274209.7788 Press    =       -94.5905 
Volume   =    310445.9247 
---------------- Step     1450 ----- CPU =      3.1546 (sec) ----------------
TotEng   =    -24688.4707 KinEng   =     21646.3231 Temp     =       301.8494 
PotEng   =    -46334.7938 E_bond   =      2567.3061 E_angle  =     11111.7092 
E_dihed  =      5295.4019 E_impro  =       203.8008 E_vdwl   =     -2072.4866 
E_coul   =    210765.2984 E_long   =   -274205.8235 Press    =       245.1674 
Volume   =    310390.6551 
---------------- Step     1500 ----- CPU =      3.2611 (sec) ----------------
TotEng   =    -24746.1470 KinEng   =     21530.7148 Temp     =       300.2373 
PotEng   =    -46276.8617 E_bond   =      2550.8748 E_angle  =     11069.5123 
E_dihed  =      5305.2384 E_impro  =       217.0135 E_vdwl   =     -2056.3373 
E_coul   =    210842.8795 E_long   =   -274206.0428 Press    =        98.4340 
Volume   =    310397.3254 
---------------- Step     1550 ----- CPU =      3.3688 (sec) ----------------
TotEng   =    -24945.9930 KinEng   =     21593.9605 Temp     =       301.1192 
PotEng   =    -46539.9535 E_bond   =      2594.1016 E_angle  =     10970.1074 
E_dihed  =      5230.0510 E_impro  =       215.9704 E_vdwl   =     -2145.0417 
E_coul   =    210804.0833 E_long   =   -274209.2255 Press    =      -127.3470 
Volume   =    310426.3543 
---------------- Step     1600 ----- CPU =      3.4743 (sec) ----------------
TotEng   =    -25167.9182 KinEng   =     21415.3090 Temp     =       298.6280 
PotEng   =    -46583.2273 E_bond   =      2576.4933 E_angle  =     10889.0863 
E_dihed  =      5265.2803 E_impro  =       231.6780 E_vdwl   =     -2124.0145 
E_coul   =    210791.7742 E_long   =   -274213.5249 Press    =        11.5082 
Volume   =    310512.7559 
---------------- Step     1650 ----- CPU =      3.5802 (sec) ----------------
TotEng   =    -25222.3294 KinEng   =     21315.4536 Temp     =       297.2356 
PotEng   =    -46537.7830 E_bond   =      2639.2466 E_angle  =     11007.0769 
E_dihed  =      5225.5896 E_impro  =       238.5888 E_vdwl   =     -2018.5999 
E_coul   =    210599.7346 E_long   =   -274229.4195 Press    =      -513.5194 
Volume   =    310447.0013 
---------------- Step     1700 ----- CPU =      3.6873 (sec) ----------------
TotEng   =    -25129.9051 KinEng   =     21347.4861 Temp     =       297.6822 
PotEng   =    -46477.3912 E_bond   =      2500.0703 E_angle  =     11081.1324 
E_dihed  =      5288.2831 E_impro  =       237.7394 E_vdwl   =     -1968.6539 
E_coul   =    210595.2292 E_long   =   -274211.1916 Press    =       526.3578 
Volume   =    310331.4865 
---------------- Step     1750 ----- CPU =      3.7914 (sec) ----------------
TotEng   =    -24887.9046 KinEng   =     21636.3529 Temp     =       301.7104 
PotEng   =    -46524.2575 E_bond   =      2609.6676 E_angle  =     10961.1041 
E_dihed  =      5287.0223 E_impro  =       228.8245 E_vdwl   =     -2223.4940 
E_coul   =    210819.1222 E_long   =   -274206.5042 Press    =      -446.4927 
Volume   =    310234.7448 
---------------- Step     1800 ----- CPU =      3.8938 (sec) ----------------
TotEng   =    -24738.3525 KinEng   =     21521.7005 Temp     =       300.1116 
PotEng   =    -46260.0530 E_bond   =      2606.2742 E_angle  =     11027.5401 
E_dihed  =      5288.7991 E_impro  =       241.2343 E_vdwl   =     -2168.7515 
E_coul   =    210964.8216 E_long   =   -274219.9708 Press    =       -36.6052 
Volume   =    309991.9334 
---------------- Step     1850 ----- CPU =      3.9965 (sec) ----------------
TotEng   =    -24758.0300 KinEng   =     21703.6577 Temp     =       302.6489 
PotEng   =    -46461.6877 E_bond   =      2552.7675 E_angle  =     11027.8459 
E_dihed  =      5260.8341 E_impro  =       205.5786 E_vdwl   =     -2079.3812 
E_coul   =    210787.1583 E_long   =   -274216.4908 Press    =       256.5521 
Volume   =    309738.5812 
---------------- Step     1900 ----- CPU =      4.1011 (sec) ----------------
TotEng   =    -24987.6400 KinEng   =     21479.1212 Temp     =       299.5178 
PotEng   =    -46466.7612 E_bond   =      2584.6525 E_angle  =     10977.0189 
E_dihed  =      5227.2019 E_impro  =       229.7724 E_vdwl   =     -2132.8106 
E_coul   =    210841.3190 E_long   =   -274193.9154 Press    =      -733.4237 
Volume   =    309637.4524 
---------------- Step     1950 ----- CPU =      4.2015 (sec) ----------------
TotEng   =    -25295.4855 KinEng   =     21479.4760 Temp     =       299.5228 
PotEng   =    -46774.9614 E_bond   =      2474.8976 E_angle  =     10896.5103 
E_dihed  =      5241.9493 E_impro  =       237.8729 E_vdwl   =     -2028.3154 
E_coul   =    210608.6024 E_long   =   -274206.4784 Press    =       281.4410 
Volume   =    309478.9076 
---------------- Step     2000 ----- CPU =      4.3037 (sec) ----------------
TotEng   =    -25403.0396 KinEng   =     21336.6532 Temp     =       297.5312 
PotEng   =    -46739.6928 E_bond   =      2593.4769 E_angle  =     10899.4430 
E_dihed  =      5305.1739 E_impro  =       243.1827 E_vdwl   =     -2347.8778 
E_coul   =    210778.5712 E_long   =   -274211.6626 Press    =       -33.6540 
Volume   =    309375.0820 
---------------- Step     2050 ----- CPU =      4.4067 (sec) ----------------
TotEng   =    -25247.1117 KinEng   =     21359.5847 Temp     =       297.8509 
PotEng   =    -46606.6964 E_bond   =      2571.4947 E_angle  =     10940.4729 
E_dihed  =      5279.5846 E_impro  =       248.7412 E_vdwl   =     -2085.5868 
E_coul   =    210651.9540 E_long   =   -274213.3569 Press    =        29.0580 
Volume   =    309127.5504 
---------------- Step     2100 ----- CPU =      4.5062 (sec) ----------------
TotEng   =    -25005.8422 KinEng   =     21410.0715 Temp     =       298.5550 
PotEng   =    -46415.9138 E_bond   =      2573.2498 E_angle  =     10991.0131 
E_dihed  =      5338.0690 E_impro  =       224.0702 E_vdwl   =     -1981.9902 
E_coul   =    210660.2182 E_long   =   -274220.5438 Press    =       406.9697 
Volume   =    308978.6199 
---------------- Step     2150 ----- CPU =      4.6071 (sec) ----------------
TotEng   =    -24820.0815 KinEng   =     21697.4775 Temp     =       302.5627 
PotEng   =    -46517.5591 E_bond   =      2532.9021 E_angle  =     11132.1369 
E_dihed  =      5218.2521 E_impro  =       228.8583 E_vdwl   =     -2157.0123 
E_coul   =    210748.7938 E_long   =   -274221.4899 Press    =       -90.7318 
Volume   =    309161.6619 
---------------- Step     2200 ----- CPU =      4.7102 (sec) ----------------
TotEng   =    -24893.0492 KinEng   =     21644.9085 Temp     =       301.8297 
PotEng   =    -46537.9578 E_bond   =      2559.4612 E_angle  =     11056.4285 
E_dihed  =      5244.8274 E_impro  =       225.3379 E_vdwl   =     -2114.1737 
E_coul   =    210710.0546 E_long   =   -274219.8936 Press    =      -138.6379 
Volume   =    309431.2970 
---------------- Step     2250 ----- CPU =      4.8107 (sec) ----------------
TotEng   =    -25070.1305 KinEng   =     21466.9362 Temp     =       299.3479 
PotEng   =    -46537.0667 E_bond   =      2608.1960 E_angle  =     11008.0682 
E_dihed  =      5214.8119 E_impro  =       226.5431 E_vdwl   =     -2075.2784 
E_coul   =    210692.4792 E_long   =   -274211.8867 Press    =        -1.9782 
Volume   =    309682.7158 
---------------- Step     2300 ----- CPU =      4.9103 (sec) ----------------
TotEng   =    -25228.2519 KinEng   =     21581.2034 Temp     =       300.9413 
PotEng   =    -46809.4553 E_bond   =      2589.8302 E_angle  =     11003.3751 
E_dihed  =      5249.4270 E_impro  =       215.9940 E_vdwl   =     -2117.0342 
E_coul   =    210454.9763 E_long   =   -274206.0237 Press    =      -455.6460 
Volume   =    309760.2456 
---------------- Step     2350 ----- CPU =      5.0104 (sec) ----------------
TotEng   =    -25336.6148 KinEng   =     21364.2726 Temp     =       297.9163 
PotEng   =    -46700.8874 E_bond   =      2594.9577 E_angle  =     11039.4797 
E_dihed  =      5311.5367 E_impro  =       218.7227 E_vdwl   =     -2261.8438 
E_coul   =    210601.4762 E_long   =   -274205.2167 Press    =      -400.2704 
Volume   =    309690.2547 
---------------- Step     2400 ----- CPU =      5.1092 (sec) ----------------
TotEng   =    -25211.5903 KinEng   =     21377.3174 Temp     =       298.0982 
PotEng   =    -46588.9077 E_bond   =      2554.8951 E_angle  =     10992.8648 
E_dihed  =      5273.7121 E_impro  =       230.4793 E_vdwl   =     -2041.2508 
E_coul   =    210603.6335 E_long   =   -274203.2418 Press    =        67.0017 
Volume   =    309441.8426 
---------------- Step     2450 ----- CPU =      5.2099 (sec) ----------------
TotEng   =    -24961.0402 KinEng   =     21672.9468 Temp     =       302.2207 
PotEng   =    -46633.9870 E_bond   =      2578.2286 E_angle  =     11059.6229 
E_dihed  =      5238.7044 E_impro  =       228.3133 E_vdwl   =     -2002.9566 
E_coul   =    210470.0964 E_long   =   -274205.9960 Press    =        99.1909 
Volume   =    309274.7520 
---------------- Step     2500 ----- CPU =      5.3083 (sec) ----------------
TotEng   =    -24917.9244 KinEng   =     21760.8122 Temp     =       303.4459 
PotEng   =    -46678.7366 E_bond   =      2535.6418 E_angle  =     10923.5402 
E_dihed  =      5263.2550 E_impro  =       229.4760 E_vdwl   =     -2128.9894 
E_coul   =    210709.6794 E_long   =   -274211.3396 Press    =       159.0406 
Volume   =    309204.9759 
---------------- Step     2550 ----- CPU =      5.4069 (sec) ----------------
TotEng   =    -25093.1952 KinEng   =     21386.2101 Temp     =       298.2222 
PotEng   =    -46479.4053 E_bond   =      2541.9339 E_angle  =     11086.1589 
E_dihed  =      5307.5915 E_impro  =       251.8627 E_vdwl   =     -2259.4602 
E_coul   =    210789.1790 E_long   =   -274196.6712 Press    =       -44.8155 
Volume   =    309194.2922 
---------------- Step     2600 ----- CPU =      5.5088 (sec) ----------------
TotEng   =    -25321.3339 KinEng   =     21372.2107 Temp     =       298.0270 
PotEng   =    -46693.5445 E_bond   =      2535.8387 E_angle  =     10980.5180 
E_dihed  =      5236.6368 E_impro  =       226.7225 E_vdwl   =     -2144.4197 
E_coul   =    210681.6358 E_long   =   -274210.4768 Press    =       -96.2973 
Volume   =    309146.2554 
---------------- Step     2650 ----- CPU =      5.6076 (sec) ----------------
TotEng   =    -25359.4501 KinEng   =     21372.1452 Temp     =       298.0261 
PotEng   =    -46731.5953 E_bond   =      2529.3926 E_angle  =     10981.6711 
E_dihed  =      5242.5585 E_impro  =       211.3179 E_vdwl   =     -2067.2094 
E_coul   =    210571.5332 E_long   =   -274200.8593 Press    =       326.7330 
Volume   =    309002.2027 
---------------- Step     2700 ----- CPU =      5.7058 (sec) ----------------
TotEng   =    -25209.7321 KinEng   =     21440.5753 Temp     =       298.9803 
PotEng   =    -46650.3074 E_bond   =      2592.6488 E_angle  =     11107.2275 
E_dihed  =      5229.0829 E_impro  =       211.8808 E_vdwl   =     -2061.7623 
E_coul   =    210475.7219 E_long   =   -274205.1069 Press    =      -329.2091 
Volume   =    308933.9762 
---------------- Step     2750 ----- CPU =      5.8078 (sec) ----------------
TotEng   =    -25095.0705 KinEng   =     21555.1438 Temp     =       300.5779 
PotEng   =    -46650.2144 E_bond   =      2577.0105 E_angle  =     10965.3612 
E_dihed  =      5227.4969 E_impro  =       220.1435 E_vdwl   =     -1873.2912 
E_coul   =    210431.7512 E_long   =   -274198.6865 Press    =       492.2828 
Volume   =    308766.2103 
---------------- Step     2800 ----- CPU =      5.9073 (sec) ----------------
TotEng   =    -25147.6747 KinEng   =     21604.7665 Temp     =       301.2699 
PotEng   =    -46752.4412 E_bond   =      2567.7284 E_angle  =     10961.0758 
E_dihed  =      5278.5113 E_impro  =       219.5135 E_vdwl   =     -2038.9357 
E_coul   =    210454.4908 E_long   =   -274194.8253 Press    =       132.0420 
Volume   =    308720.1921 
---------------- Step     2850 ----- CPU =      6.0056 (sec) ----------------
TotEng   =    -25188.7193 KinEng   =     21502.1647 Temp     =       299.8392 
PotEng   =    -46690.8840 E_bond   =      2533.4075 E_angle  =     11034.4466 
E_dihed  =      5234.4454 E_impro  =       222.9504 E_vdwl   =     -2083.3818 
E_coul   =    210582.2971 E_long   =   -274215.0492 Press    =      -157.0606 
Volume   =    308832.9015 
---------------- Step     2900 ----- CPU =      6.1058 (sec) ----------------
TotEng   =    -25143.7107 KinEng   =     21459.7533 Temp     =       299.2478 
PotEng   =    -46603.4639 E_bond   =      2585.2314 E_angle  =     11099.4976 
E_dihed  =      5213.9674 E_impro  =       230.8872 E_vdwl   =     -2033.5791 
E_coul   =    210503.9752 E_long   =   -274203.4438 Press    =       272.2690 
Volume   =    308859.0349 
---------------- Step     2950 ----- CPU =      6.2099 (sec) ----------------
TotEng   =    -25183.0024 KinEng   =     21498.1350 Temp     =       299.7830 
PotEng   =    -46681.1374 E_bond   =      2567.8885 E_angle  =     11067.7728 
E_dihed  =      5207.3230 E_impro  =       236.0915 E_vdwl   =     -2120.0525 
E_coul   =    210575.5557 E_long   =   -274215.7165 Press    =      -253.2747 
Volume   =    308921.9602 
---------------- Step     3000 ----- CPU =      6.3116 (sec) ----------------
TotEng   =    -25266.4420 KinEng   =     21593.8583 Temp     =       301.1178 
PotEng   =    -46860.3002 E_bond   =      2504.9900 E_angle  =     10988.4218 
E_dihed  =      5232.9650 E_impro  =       217.3412 E_vdwl   =     -2003.5073 
E_coul   =    210417.0141 E_long   =   -274217.5251 Press    =        41.8812 
Volume   =    309005.1477 
---------------- Step     3050 ----- CPU =      6.4100 (sec) ----------------
TotEng   =    -25339.0087 KinEng   =     21495.9629 Temp     =       299.7527 
PotEng   =    -46834.9716 E_bond   =      2581.9172 E_angle  =     10832.3428 
E_dihed  =      5240.5744 E_impro  =       233.7206 E_vdwl   =     -2202.1967 
E_coul   =    210705.8285 E_long   =   -274227.1583 Press    =       148.6844 
Volume   =    309153.4175 
---------------- Step     3100 ----- CPU =      6.5087 (sec) ----------------
TotEng   =    -25289.2014 KinEng   =     21454.5232 Temp     =       299.1748 
PotEng   =    -46743.7246 E_bond   =      2596.1247 E_angle  =     11098.4236 
E_dihed  =      5263.3879 E_impro  =       233.1368 E_vdwl   =     -2207.6673 
E_coul   =    210481.8338 E_long   =   -274208.9641 Press    =       110.3952 
Volume   =    309099.2193 
---------------- Step     3150 ----- CPU =      6.6066 (sec) ----------------
TotEng   =    -25217.5136 KinEng   =     21556.4176 Temp     =       300.5957 
PotEng   =    -46773.9312 E_bond   =      2508.6857 E_angle  =     10982.9466 
E_dihed  =      5162.4895 E_impro  =       221.3158 E_vdwl   =     -2088.2054 
E_coul   =    210644.6793 E_long   =   -274205.8427 Press    =      -151.6824 
Volume   =    309058.7624 
---------------- Step     3200 ----- CPU =      6.7090 (sec) ----------------
TotEng   =    -25064.6746 KinEng   =     21648.5617 Temp     =       301.8806 
PotEng   =    -46713.2363 E_bond   =      2567.9159 E_angle  =     10939.3064 
E_dihed  =      5142.7315 E_impro  =       216.6933 E_vdwl   =     -2186.5163 
E_coul   =    210817.9317 E_long   =   -274211.2988 Press    =       244.2275 
Volume   =    309057.1343 
---------------- Step     3250 ----- CPU =      6.8080 (sec) ----------------
TotEng   =    -24963.7763 KinEng   =     21553.4782 Temp     =       300.5547 
PotEng   =    -46517.2544 E_bond   =      2585.9200 E_angle  =     11086.3978 
E_dihed  =      5256.8118 E_impro  =       212.2618 E_vdwl   =     -1971.3618 
E_coul   =    210529.9171 E_long   =   -274217.2011 Press    =       468.4621 
Volume   =    309133.0095 
---------------- Step     3300 ----- CPU =      6.9095 (sec) ----------------
TotEng   =    -25027.7017 KinEng   =     21584.5336 Temp     =       300.9878 
PotEng   =    -46612.2353 E_bond   =      2531.5445 E_angle  =     11093.6842 
E_dihed  =      5234.9516 E_impro  =       224.7099 E_vdwl   =     -1986.9004 
E_coul   =    210506.0408 E_long   =   -274216.2659 Press    =       170.0981 
Volume   =    309168.1363 
---------------- Step     3350 ----- CPU =      7.0099 (sec) ----------------
TotEng   =    -25285.8499 KinEng   =     21521.3958 Temp     =       300.1073 
PotEng   =    -46807.2457 E_bond   =      2563.0952 E_angle  =     11014.1596 
E_dihed  =      5214.7473 E_impro  =       233.7773 E_vdwl   =     -1990.0211 
E_coul   =    210367.9475 E_long   =   -274210.9515 Press    =      -109.2384 
Volume   =    309309.2492 
---------------- Step     3400 ----- CPU =      7.1103 (sec) ----------------
TotEng   =    -25511.7923 KinEng   =     21186.4667 Temp     =       295.4369 
PotEng   =    -46698.2590 E_bond   =      2562.5310 E_angle  =     11064.7683 
E_dihed  =      5229.2419 E_impro  =       215.3412 E_vdwl   =     -2149.2917 
E_coul   =    210598.5856 E_long   =   -274219.4353 Press    =       -69.3108 
Volume   =    309441.2694 
---------------- Step     3450 ----- CPU =      7.2096 (sec) ----------------
TotEng   =    -25447.1560 KinEng   =     21475.1225 Temp     =       299.4621 
PotEng   =    -46922.2785 E_bond   =      2589.6937 E_angle  =     10924.4538 
E_dihed  =      5202.6843 E_impro  =       216.7131 E_vdwl   =     -2079.2888 
E_coul   =    210437.6300 E_long   =   -274214.1646 Press    =      -170.2207 
Volume   =    309462.1854 
---------------- Step     3500 ----- CPU =      7.3094 (sec) ----------------
TotEng   =    -25172.8535 KinEng   =     21678.4592 Temp     =       302.2975 
PotEng   =    -46851.3128 E_bond   =      2591.6404 E_angle  =     10986.5067 
E_dihed  =      5247.5923 E_impro  =       223.5653 E_vdwl   =     -1994.8556 
E_coul   =    210291.9218 E_long   =   -274197.6836 Press    =        17.3651 
Volume   =    309572.7813 
---------------- Step     3550 ----- CPU =      7.4090 (sec) ----------------
TotEng   =    -25038.6201 KinEng   =     21473.9444 Temp     =       299.4456 
PotEng   =    -46512.5645 E_bond   =      2570.8591 E_angle  =     11023.6632 
E_dihed  =      5285.5753 E_impro  =       232.3971 E_vdwl   =     -2011.1197 
E_coul   =    210575.2285 E_long   =   -274189.1679 Press    =       295.4706 
Volume   =    309724.1684 
---------------- Step     3600 ----- CPU =      7.5089 (sec) ----------------
TotEng   =    -25064.1259 KinEng   =     21345.4768 Temp     =       297.6542 
PotEng   =    -46409.6027 E_bond   =      2622.7518 E_angle  =     11069.3257 
E_dihed  =      5260.6707 E_impro  =       232.0144 E_vdwl   =     -2100.1737 
E_coul   =    210715.2582 E_long   =   -274209.4498 Press    =       171.0153 
Volume   =    309844.4201 
---------------- Step     3650 ----- CPU =      7.6097 (sec) ----------------
TotEng   =    -25203.9151 KinEng   =     21447.9032 Temp     =       299.0825 
PotEng   =    -46651.8183 E_bond   =      2624.2962 E_angle  =     11112.2376 
E_dihed  =      5183.1955 E_impro  =       248.5774 E_vdwl   =     -2220.9031 
E_coul   =    210612.0142 E_long   =   -274211.2361 Press    =      -478.2083 
Volume   =    309965.1743 
---------------- Step     3700 ----- CPU =      7.7080 (sec) ----------------
TotEng   =    -25345.8486 KinEng   =     21412.9356 Temp     =       298.5949 
PotEng   =    -46758.7842 E_bond   =      2527.2425 E_angle  =     10973.5681 
E_dihed  =      5263.7748 E_impro  =       231.1103 E_vdwl   =     -2171.1227 
E_coul   =    210641.2431 E_long   =   -274224.6002 Press    =      -202.8317 
Volume   =    309858.3031 
---------------- Step     3750 ----- CPU =      7.8070 (sec) ----------------
TotEng   =    -25280.5875 KinEng   =     21472.1889 Temp     =       299.4212 
PotEng   =    -46752.7764 E_bond   =      2652.9210 E_angle  =     10940.3729 
E_dihed  =      5225.8732 E_impro  =       224.6510 E_vdwl   =     -2161.3384 
E_coul   =    210577.3284 E_long   =   -274212.5846 Press    =      -620.6037 
Volume   =    309661.7639 
---------------- Step     3800 ----- CPU =      7.9057 (sec) ----------------
TotEng   =    -25102.6847 KinEng   =     21546.1161 Temp     =       300.4521 
PotEng   =    -46648.8008 E_bond   =      2592.3284 E_angle  =     11083.5450 
E_dihed  =      5257.8091 E_impro  =       217.3488 E_vdwl   =     -2142.0054 
E_coul   =    210550.3762 E_long   =   -274208.2029 Press    =      -177.2120 
Volume   =    309262.6637 
---------------- Step     3850 ----- CPU =      8.0072 (sec) ----------------
TotEng   =    -25018.4794 KinEng   =     21517.2712 Temp     =       300.0498 
PotEng   =    -46535.7506 E_bond   =      2589.9672 E_angle  =     11140.8943 
E_dihed  =      5256.3139 E_impro  =       204.6460 E_vdwl   =     -2101.0422 
E_coul   =    210600.6643 E_long   =   -274227.1942 Press    =      -298.7184 
Volume   =    308918.2248 
---------------- Step     3900 ----- CPU =      8.1059 (sec) ----------------
TotEng   =    -25083.0195 KinEng   =     21574.9818 Temp     =       300.8546 
PotEng   =    -46658.0014 E_bond   =      2605.3944 E_angle  =     11051.5251 
E_dihed  =      5229.6940 E_impro  =       236.0271 E_vdwl   =     -2037.8459 
E_coul   =    210475.8420 E_long   =   -274218.6381 Press    =       -62.5971 
Volume   =    308595.0096 
---------------- Step     3950 ----- CPU =      8.2037 (sec) ----------------
TotEng   =    -25206.5018 KinEng   =     21511.7934 Temp     =       299.9734 
PotEng   =    -46718.2952 E_bond   =      2543.0259 E_angle  =     11049.1009 
E_dihed  =      5230.1954 E_impro  =       221.0044 E_vdwl   =     -2254.9639 
E_coul   =    210692.0014 E_long   =   -274198.6594 Press    =       128.2157 
Volume   =    308433.6678 
---------------- Step     4000 ----- CPU =      8.3040 (sec) ----------------
TotEng   =    -25310.3322 KinEng   =     21506.0190 Temp     =       299.8929 
PotEng   =    -46816.3512 E_bond   =      2563.6106 E_angle  =     11079.8876 
E_dihed  =      5199.1589 E_impro  =       212.7040 E_vdwl   =     -1984.0676 
E_coul   =    210321.9756 E_long   =   -274209.6202 Press    =       -54.9145 
Volume   =    308274.6276 
---------------- Step     4050 ----- CPU =      8.4029 (sec) ----------------
TotEng   =    -25412.8292 KinEng   =     21462.1349 Temp     =       299.2810 
PotEng   =    -46874.9641 E_bond   =      2554.7154 E_angle  =     11001.5338 
E_dihed  =      5237.1740 E_impro  =       223.2956 E_vdwl   =     -2163.7113 
E_coul   =    210489.9715 E_long   =   -274217.9431 Press    =       193.8467 
Volume   =    308127.4449 
---------------- Step     4100 ----- CPU =      8.5040 (sec) ----------------
TotEng   =    -25317.0770 KinEng   =     21387.2041 Temp     =       298.2361 
PotEng   =    -46704.2811 E_bond   =      2621.9166 E_angle  =     11000.8265 
E_dihed  =      5234.2564 E_impro  =       228.6940 E_vdwl   =     -2116.5990 
E_coul   =    210537.2826 E_long   =   -274210.6583 Press    =      -109.7137 
Volume   =    308113.3197 
---------------- Step     4150 ----- CPU =      8.6027 (sec) ----------------
TotEng   =    -25135.3945 KinEng   =     21674.5018 Temp     =       302.2423 
PotEng   =    -46809.8963 E_bond   =      2549.9282 E_angle  =     11024.3577 
E_dihed  =      5259.9973 E_impro  =       215.5798 E_vdwl   =     -2079.4008 
E_coul   =    210434.2288 E_long   =   -274214.5873 Press    =      -161.8830 
Volume   =    308140.3781 
---------------- Step     4200 ----- CPU =      8.7043 (sec) ----------------
TotEng   =    -25025.8342 KinEng   =     21653.7033 Temp     =       301.9523 
PotEng   =    -46679.5375 E_bond   =      2606.4036 E_angle  =     11028.1247 
E_dihed  =      5257.1014 E_impro  =       218.8086 E_vdwl   =     -2145.4392 
E_coul   =    210564.2774 E_long   =   -274208.8140 Press    =      -431.3326 
Volume   =    308289.9027 
---------------- Step     4250 ----- CPU =      8.8036 (sec) ----------------
TotEng   =    -25065.5315 KinEng   =     21503.8140 Temp     =       299.8622 
PotEng   =    -46569.3455 E_bond   =      2629.0525 E_angle  =     11128.7174 
E_dihed  =      5245.5272 E_impro  =       224.9122 E_vdwl   =     -2025.7447 
E_coul   =    210449.4589 E_long   =   -274221.2689 Press    =      -159.7363 
Volume   =    308311.3577 
---------------- Step     4300 ----- CPU =      8.9064 (sec) ----------------
TotEng   =    -25157.4279 KinEng   =     21398.9780 Temp     =       298.4003 
PotEng   =    -46556.4059 E_bond   =      2601.1868 E_angle  =     11154.2625 
E_dihed  =      5300.0474 E_impro  =       236.4756 E_vdwl   =     -2376.7977 
E_coul   =    210755.1735 E_long   =   -274226.7541 Press    =      -238.8908 
Volume   =    308408.6248 
---------------- Step     4350 ----- CPU =      9.0036 (sec) ----------------
TotEng   =    -25167.0860 KinEng   =     21472.8627 Temp     =       299.4306 
PotEng   =    -46639.9487 E_bond   =      2571.6598 E_angle  =     11110.9899 
E_dihed  =      5310.9193 E_impro  =       222.3722 E_vdwl   =     -2022.7535 
E_coul   =    210376.6461 E_long   =   -274209.7825 Press    =      -154.7990 
Volume   =    308454.8720 
---------------- Step     4400 ----- CPU =      9.1059 (sec) ----------------
TotEng   =    -25139.4406 KinEng   =     21405.5348 Temp     =       298.4917 
PotEng   =    -46544.9754 E_bond   =      2615.6215 E_angle  =     11171.0768 
E_dihed  =      5307.2424 E_impro  =       223.1738 E_vdwl   =     -2297.4654 
E_coul   =    210636.8102 E_long   =   -274201.4346 Press    =      -316.7211 
Volume   =    308480.6198 
---------------- Step     4450 ----- CPU =      9.2071 (sec) ----------------
TotEng   =    -25139.1751 KinEng   =     21563.6110 Temp     =       300.6960 
PotEng   =    -46702.7862 E_bond   =      2570.7205 E_angle  =     11014.7056 
E_dihed  =      5244.8479 E_impro  =       214.1511 E_vdwl   =     -2142.1452 
E_coul   =    210600.8320 E_long   =   -274205.8980 Press    =      -192.4151 
Volume   =    308281.0334 
---------------- Step     4500 ----- CPU =      9.3077 (sec) ----------------
TotEng   =    -25024.8331 KinEng   =     21312.9604 Temp     =       297.2008 
PotEng   =    -46337.7935 E_bond   =      2589.3141 E_angle  =     11234.5852 
E_dihed  =      5270.2414 E_impro  =       233.5731 E_vdwl   =     -1931.1972 
E_coul   =    210484.0066 E_long   =   -274218.3167 Press    =       303.4470 
Volume   =    308197.2634 
---------------- Step     4550 ----- CPU =      9.4105 (sec) ----------------
TotEng   =    -24909.9882 KinEng   =     21556.7921 Temp     =       300.6009 
PotEng   =    -46466.7803 E_bond   =      2657.3019 E_angle  =     11107.7897 
E_dihed  =      5262.3917 E_impro  =       224.0364 E_vdwl   =     -1993.3008 
E_coul   =    210480.5832 E_long   =   -274205.5824 Press    =       378.8974 
Volume   =    308223.6845 
---------------- Step     4600 ----- CPU =      9.5107 (sec) ----------------
TotEng   =    -25054.1771 KinEng   =     21621.0157 Temp     =       301.4965 
PotEng   =    -46675.1928 E_bond   =      2504.8558 E_angle  =     11059.0766 
E_dihed  =      5237.5890 E_impro  =       224.8076 E_vdwl   =     -1850.3492 
E_coul   =    210353.6391 E_long   =   -274204.8117 Press    =       292.1068 
Volume   =    308389.0804 
---------------- Step     4650 ----- CPU =      9.6155 (sec) ----------------
TotEng   =    -25265.4531 KinEng   =     21557.9973 Temp     =       300.6177 
PotEng   =    -46823.4504 E_bond   =      2584.4675 E_angle  =     11013.2310 
E_dihed  =      5291.2386 E_impro  =       230.0124 E_vdwl   =     -2159.4013 
E_coul   =    210423.2821 E_long   =   -274206.2807 Press    =      -585.6402 
Volume   =    308802.5541 
---------------- Step     4700 ----- CPU =      9.7142 (sec) ----------------
TotEng   =    -25435.1367 KinEng   =     21197.5412 Temp     =       295.5913 
PotEng   =    -46632.6779 E_bond   =      2564.1229 E_angle  =     11058.2037 
E_dihed  =      5253.8499 E_impro  =       221.7546 E_vdwl   =     -2178.4602 
E_coul   =    210657.7608 E_long   =   -274209.9096 Press    =       233.3248 
Volume   =    309091.3512 
---------------- Step     4750 ----- CPU =      9.8148 (sec) ----------------
TotEng   =    -25293.0854 KinEng   =     21545.7334 Temp     =       300.4467 
PotEng   =    -46838.8189 E_bond   =      2541.0110 E_angle  =     11040.1158 
E_dihed  =      5222.0657 E_impro  =       217.9280 E_vdwl   =     -2173.4653 
E_coul   =    210524.6669 E_long   =   -274211.1410 Press    =      -206.7026 
Volume   =    309295.1483 
---------------- Step     4800 ----- CPU =      9.9130 (sec) ----------------
TotEng   =    -24990.4872 KinEng   =     21582.4775 Temp     =       300.9591 
PotEng   =    -46572.9647 E_bond   =      2641.0935 E_angle  =     11044.8562 
E_dihed  =      5252.3634 E_impro  =       249.8491 E_vdwl   =     -2040.8639 
E_coul   =    210488.3249 E_long   =   -274208.5878 Press    =       -62.9095 
Volume   =    309363.2925 
---------------- Step     4850 ----- CPU =     10.0132 (sec) ----------------
TotEng   =    -24832.9530 KinEng   =     21660.3087 Temp     =       302.0444 
PotEng   =    -46493.2617 E_bond   =      2684.1516 E_angle  =     11066.5169 
E_dihed  =      5298.6984 E_impro  =       219.4538 E_vdwl   =     -2116.3597 
E_coul   =    210562.8548 E_long   =   -274208.5776 Press    =        24.6713 
Volume   =    309332.9207 
---------------- Step     4900 ----- CPU =     10.1142 (sec) ----------------
TotEng   =    -24859.9987 KinEng   =     21597.1399 Temp     =       301.1636 
PotEng   =    -46457.1386 E_bond   =      2624.5294 E_angle  =     11164.1214 
E_dihed  =      5287.4353 E_impro  =       210.3201 E_vdwl   =     -2251.0562 
E_coul   =    210717.2225 E_long   =   -274209.7112 Press    =      -159.7547 
Volume   =    309353.3304 
---------------- Step     4950 ----- CPU =     10.2166 (sec) ----------------
TotEng   =    -25036.5913 KinEng   =     21488.3494 Temp     =       299.6465 
PotEng   =    -46524.9407 E_bond   =      2543.1377 E_angle  =     11053.5522 
E_dihed  =      5197.5129 E_impro  =       238.4609 E_vdwl   =     -2051.5820 
E_coul   =    210708.8977 E_long   =   -274214.9202 Press    =       -19.0182 
Volume   =    309212.4638 
---------------- Step     5000 ----- CPU =     10.3144 (sec) ----------------
TotEng   =    -25205.5658 KinEng   =     21442.5480 Temp     =       299.0078 
PotEng   =    -46648.1139 E_bond   =      2649.7193 E_angle  =     11097.0669 
E_dihed  =      5170.8139 E_impro  =       238.3330 E_vdwl   =     -2091.9600 
E_coul   =    210506.8492 E_long   =   -274218.9361 Press    =       250.8338 
Volume   =    309087.6183 
---------------- Step     5050 ----- CPU =     10.4141 (sec) ----------------
TotEng   =    -25200.8379 KinEng   =     21489.1379 Temp     =       299.6575 
PotEng   =    -46689.9759 E_bond   =      2584.3376 E_angle  =     11083.4974 
E_dihed  =      5268.6531 E_impro  =       214.8910 E_vdwl   =     -2060.7853 
E_coul   =    210429.8957 E_long   =   -274210.4653 Press    =      -381.4292 
Volume   =    309035.6966 
---------------- Step     5100 ----- CPU =     10.5155 (sec) ----------------
TotEng   =    -25101.8131 KinEng   =     21584.8107 Temp     =       300.9916 
PotEng   =    -46686.6237 E_bond   =      2527.2540 E_angle  =     11032.9816 
E_dihed  =      5276.9893 E_impro  =       259.7918 E_vdwl   =     -2052.5851 
E_coul   =    210485.9753 E_long   =   -274217.0307 Press    =       -58.5823 
Volume   =    308878.9447 
---------------- Step     5150 ----- CPU =     10.6165 (sec) ----------------
TotEng   =    -25075.5678 KinEng   =     21651.3976 Temp     =       301.9202 
PotEng   =    -46726.9654 E_bond   =      2644.2162 E_angle  =     10964.7189 
E_dihed  =      5249.1714 E_impro  =       232.1964 E_vdwl   =     -2124.7620 
E_coul   =    210518.0576 E_long   =   -274210.5640 Press    =       226.4129 
Volume   =    308717.1462 
---------------- Step     5200 ----- CPU =     10.7164 (sec) ----------------
TotEng   =    -25083.5545 KinEng   =     21489.4282 Temp     =       299.6616 
PotEng   =    -46572.9827 E_bond   =      2603.6287 E_angle  =     11219.2344 
E_dihed  =      5254.8292 E_impro  =       234.2125 E_vdwl   =     -2195.6558 
E_coul   =    210518.4756 E_long   =   -274207.7074 Press    =        59.3236 
Volume   =    308743.4682 
---------------- Step     5250 ----- CPU =     10.8138 (sec) ----------------
TotEng   =    -25187.5426 KinEng   =     21460.6886 Temp     =       299.2608 
PotEng   =    -46648.2312 E_bond   =      2618.8620 E_angle  =     11158.8895 
E_dihed  =      5287.8898 E_impro  =       238.3894 E_vdwl   =     -1993.3002 
E_coul   =    210254.2102 E_long   =   -274213.1719 Press    =      -300.2275 
Volume   =    308710.5898 
---------------- Step     5300 ----- CPU =     10.9142 (sec) ----------------
TotEng   =    -25313.8276 KinEng   =     21444.7965 Temp     =       299.0392 
PotEng   =    -46758.6241 E_bond   =      2537.3947 E_angle  =     11053.2539 
E_dihed  =      5243.1532 E_impro  =       232.1852 E_vdwl   =     -1895.6636 
E_coul   =    210272.9861 E_long   =   -274201.9335 Press    =       100.1748 
Volume   =    308666.1286 
---------------- Step     5350 ----- CPU =     11.0122 (sec) ----------------
TotEng   =    -25340.6507 KinEng   =     21433.2912 Temp     =       298.8788 
PotEng   =    -46773.9419 E_bond   =      2525.6490 E_angle  =     11030.9781 
E_dihed  =      5262.5035 E_impro  =       238.2785 E_vdwl   =     -1978.1902 
E_coul   =    210363.5189 E_long   =   -274216.6795 Press    =       175.6389 
Volume   =    308554.3945 
---------------- Step     5400 ----- CPU =     11.1116 (sec) ----------------
TotEng   =    -25344.2254 KinEng   =     21547.6883 Temp     =       300.4740 
PotEng   =    -46891.9137 E_bond   =      2605.6999 E_angle  =     11039.3974 
E_dihed  =      5192.8890 E_impro  =       224.0647 E_vdwl   =     -2011.4153 
E_coul   =    210280.6984 E_long   =   -274223.2479 Press    =      -249.8456 
Volume   =    308417.9620 
---------------- Step     5450 ----- CPU =     11.2134 (sec) ----------------
TotEng   =    -25354.9723 KinEng   =     21417.2005 Temp     =       298.6544 
PotEng   =    -46772.1728 E_bond   =      2638.8263 E_angle  =     10999.3858 
E_dihed  =      5226.2993 E_impro  =       223.9204 E_vdwl   =     -2034.4245 
E_coul   =    210397.4980 E_long   =   -274223.6779 Press    =      -107.9642 
Volume   =    308390.3282 
---------------- Step     5500 ----- CPU =     11.3132 (sec) ----------------
TotEng   =    -25214.5125 KinEng   =     21484.6937 Temp     =       299.5955 
PotEng   =    -46699.2062 E_bond   =      2600.9844 E_angle  =     11053.1841 
E_dihed  =      5233.7173 E_impro  =       243.4466 E_vdwl   =     -2091.6613 
E_coul   =    210474.2439 E_long   =   -274213.1212 Press    =       540.0093 
Volume   =    308390.3859 
---------------- Step     5550 ----- CPU =     11.4118 (sec) ----------------
TotEng   =    -25000.5836 KinEng   =     21542.8323 Temp     =       300.4063 
PotEng   =    -46543.4159 E_bond   =      2622.5180 E_angle  =     11148.4830 
E_dihed  =      5233.8161 E_impro  =       241.6641 E_vdwl   =     -2028.1629 
E_coul   =    210452.8709 E_long   =   -274214.6051 Press    =       231.9176 
Volume   =    308491.7161 
---------------- Step     5600 ----- CPU =     11.5129 (sec) ----------------
TotEng   =    -24997.7187 KinEng   =     21764.2724 Temp     =       303.4942 
PotEng   =    -46761.9911 E_bond   =      2577.6614 E_angle  =     11069.7163 
E_dihed  =      5186.9843 E_impro  =       224.2840 E_vdwl   =     -2050.1812 
E_coul   =    210431.4314 E_long   =   -274201.8873 Press    =      -321.8393 
Volume   =    308753.6962 
---------------- Step     5650 ----- CPU =     11.6130 (sec) ----------------
TotEng   =    -25224.6795 KinEng   =     21387.7786 Temp     =       298.2441 
PotEng   =    -46612.4582 E_bond   =      2597.4309 E_angle  =     11180.1088 
E_dihed  =      5208.2081 E_impro  =       211.9069 E_vdwl   =     -2092.3971 
E_coul   =    210485.9709 E_long   =   -274203.6867 Press    =        24.9072 
Volume   =    308992.7808 
---------------- Step     5700 ----- CPU =     11.7150 (sec) ----------------
TotEng   =    -25344.3749 KinEng   =     21486.9448 Temp     =       299.6269 
PotEng   =    -46831.3196 E_bond   =      2551.7289 E_angle  =     11106.6837 
E_dihed  =      5214.2423 E_impro  =       224.7685 E_vdwl   =     -2145.9703 
E_coul   =    210426.5067 E_long   =   -274209.2794 Press    =      -209.8604 
Volume   =    308980.7207 
---------------- Step     5750 ----- CPU =     11.8144 (sec) ----------------
TotEng   =    -25229.6817 KinEng   =     21559.2246 Temp     =       300.6348 
PotEng   =    -46788.9063 E_bond   =      2591.4394 E_angle  =     11061.4912 
E_dihed  =      5250.3129 E_impro  =       249.2554 E_vdwl   =     -1931.8062 
E_coul   =    210197.1372 E_long   =   -274206.7362 Press    =       134.4323 
Volume   =    308781.8557 
---------------- Step     5800 ----- CPU =     11.9169 (sec) ----------------
TotEng   =    -25117.9727 KinEng   =     21578.3377 Temp     =       300.9014 
PotEng   =    -46696.3104 E_bond   =      2598.0341 E_angle  =     11005.4036 
E_dihed  =      5318.6865 E_impro  =       233.4678 E_vdwl   =     -2059.6363 
E_coul   =    210418.7809 E_long   =   -274211.0471 Press    =      -146.3090 
Volume   =    308641.9577 
---------------- Step     5850 ----- CPU =     12.0168 (sec) ----------------
TotEng   =    -25052.9756 KinEng   =     21526.9290 Temp     =       300.1845 
PotEng   =    -46579.9046 E_bond   =      2588.4748 E_angle  =     11116.3194 
E_dihed  =      5274.9051 E_impro  =       224.8474 E_vdwl   =     -2019.8340 
E_coul   =    210459.0524 E_long   =   -274223.6697 Press    =        48.8754 
Volume   =    308630.0025 
---------------- Step     5900 ----- CPU =     12.1158 (sec) ----------------
TotEng   =    -25106.3973 KinEng   =     21459.1145 Temp     =       299.2388 
PotEng   =    -46565.5119 E_bond   =      2565.4973 E_angle  =     11203.5285 
E_dihed  =      5280.5925 E_impro  =       230.7162 E_vdwl   =     -2065.6778 
E_coul   =    210434.8009 E_long   =   -274214.9695 Press    =      -239.3585 
Volume   =    308714.3132 
---------------- Step     5950 ----- CPU =     12.2167 (sec) ----------------
TotEng   =    -25163.6549 KinEng   =     21433.8069 Temp     =       298.8859 
PotEng   =    -46597.4619 E_bond   =      2609.4408 E_angle  =     11128.7616 
E_dihed  =      5271.8216 E_impro  =       237.4653 E_vdwl   =     -2227.5565 
E_coul   =    210608.7219 E_long   =   -274226.1166 Press    =      -227.0169 
Volume   =    308883.4864 
---------------- Step     6000 ----- CPU =     12.3180 (sec) ----------------
TotEng   =    -25172.5595 KinEng   =     21445.7497 Temp     =       299.0525 
PotEng   =    -46618.3092 E_bond   =      2564.2556 E_angle  =     11158.7147 
E_dihed  =      5294.3322 E_impro  =       228.9151 E_vdwl   =     -2030.6920 
E_coul   =    210382.8971 E_long   =   -274216.7319 Press    =      -201.6221 
Volume   =    308958.1186 
---------------- Step     6050 ----- CPU =     12.4200 (sec) ----------------
TotEng   =    -25124.7380 KinEng   =     21586.2728 Temp     =       301.0120 
PotEng   =    -46711.0109 E_bond   =      2612.0550 E_angle  =     11051.8035 
E_dihed  =      5294.4766 E_impro  =       236.0284 E_vdwl   =     -2095.1017 
E_coul   =    210417.6619 E_long   =   -274227.9346 Press    =      -127.8895 
Volume   =    308840.4146 
---------------- Step     6100 ----- CPU =     12.5179 (sec) ----------------
TotEng   =    -25158.5660 KinEng   =     21573.7501 Temp     =       300.8374 
PotEng   =    -46732.3161 E_bond   =      2586.3448 E_angle  =     11104.9979 
E_dihed  =      5260.5455 E_impro  =       220.3131 E_vdwl   =     -1907.8371 
E_coul   =    210233.6299 E_long   =   -274230.3102 Press    =        57.5913 
Volume   =    308728.8527 
---------------- Step     6150 ----- CPU =     12.6183 (sec) ----------------
TotEng   =    -25313.2062 KinEng   =     21424.4240 Temp     =       298.7551 
PotEng   =    -46737.6302 E_bond   =      2608.6675 E_angle  =     11084.7336 
E_dihed  =      5235.2415 E_impro  =       251.1215 E_vdwl   =     -1804.6022 
E_coul   =    210092.8787 E_long   =   -274205.6708 Press    =      -197.0862 
Volume   =    308662.5510 
---------------- Step     6200 ----- CPU =     12.7214 (sec) ----------------
TotEng   =    -25445.9101 KinEng   =     21509.4232 Temp     =       299.9404 
PotEng   =    -46955.3333 E_bond   =      2568.6865 E_angle  =     10954.2612 
E_dihed  =      5207.8065 E_impro  =       247.1733 E_vdwl   =     -2015.8240 
E_coul   =    210288.0208 E_long   =   -274205.4575 Press    =       -14.0059 
Volume   =    308590.4864 
---------------- Step     6250 ----- CPU =     12.8224 (sec) ----------------
TotEng   =    -25372.2056 KinEng   =     21266.9804 Temp     =       296.5596 
PotEng   =    -46639.1860 E_bond   =      2616.5944 E_angle  =     11145.4807 
E_dihed  =      5286.3011 E_impro  =       244.8358 E_vdwl   =     -2097.8316 
E_coul   =    210373.0913 E_long   =   -274207.6578 Press    =      -176.2549 
Volume   =    308504.2137 
---------------- Step     6300 ----- CPU =     12.9247 (sec) ----------------
TotEng   =    -25152.4342 KinEng   =     21478.7297 Temp     =       299.5124 
PotEng   =    -46631.1639 E_bond   =      2653.0096 E_angle  =     11230.9771 
E_dihed  =      5286.5369 E_impro  =       209.6982 E_vdwl   =     -2193.1450 
E_coul   =    210384.7295 E_long   =   -274202.9702 Press    =      -381.9407 
Volume   =    308365.2278 
---------------- Step     6350 ----- CPU =     13.0264 (sec) ----------------
TotEng   =    -25027.6101 KinEng   =     21680.1898 Temp     =       302.3217 
PotEng   =    -46707.7999 E_bond   =      2588.4768 E_angle  =     11137.5166 
E_dihed  =      5280.0888 E_impro  =       226.6538 E_vdwl   =     -1918.1121 
E_coul   =    210201.0753 E_long   =   -274223.4992 Press    =       -91.6097 
Volume   =    308144.2613 
---------------- Step     6400 ----- CPU =     13.1279 (sec) ----------------
TotEng   =    -25211.7400 KinEng   =     21687.3249 Temp     =       302.4212 
PotEng   =    -46899.0649 E_bond   =      2647.1336 E_angle  =     11025.5644 
E_dihed  =      5258.2672 E_impro  =       233.6465 E_vdwl   =     -2008.9126 
E_coul   =    210161.7108 E_long   =   -274216.4748 Press    =       -34.1590 
Volume   =    308018.1540 
---------------- Step     6450 ----- CPU =     13.2275 (sec) ----------------
TotEng   =    -25479.3621 KinEng   =     21368.6174 Temp     =       297.9769 
PotEng   =    -46847.9794 E_bond   =      2569.9937 E_angle  =     11065.3264 
E_dihed  =      5260.5149 E_impro  =       219.0688 E_vdwl   =     -1901.3289 
E_coul   =    210161.4064 E_long   =   -274222.9608 Press    =       626.8824 
Volume   =    307985.0265 
---------------- Step     6500 ----- CPU =     13.3314 (sec) ----------------
TotEng   =    -25571.6770 KinEng   =     21410.5247 Temp     =       298.5613 
PotEng   =    -46982.2017 E_bond   =      2553.0358 E_angle  =     11090.7488 
E_dihed  =      5239.9442 E_impro  =       232.9189 E_vdwl   =     -2049.2303 
E_coul   =    210185.6457 E_long   =   -274235.2648 Press    =       -96.2105 
Volume   =    308214.2382 
---------------- Step     6550 ----- CPU =     13.4300 (sec) ----------------
TotEng   =    -25413.6532 KinEng   =     21677.9164 Temp     =       302.2900 
PotEng   =    -47091.5695 E_bond   =      2555.6593 E_angle  =     10981.6689 
E_dihed  =      5215.2602 E_impro  =       224.4118 E_vdwl   =     -2127.3004 
E_coul   =    210271.1037 E_long   =   -274212.3730 Press    =       246.4971 
Volume   =    308412.1766 
---------------- Step     6600 ----- CPU =     13.5321 (sec) ----------------
TotEng   =    -25156.6361 KinEng   =     21569.2985 Temp     =       300.7753 
PotEng   =    -46725.9346 E_bond   =      2586.7901 E_angle  =     11063.9164 
E_dihed  =      5298.5244 E_impro  =       234.9339 E_vdwl   =     -2023.0052 
E_coul   =    210326.0227 E_long   =   -274213.1170 Press    =      -158.1937 
Volume   =    308530.3830 
---------------- Step     6650 ----- CPU =     13.6317 (sec) ----------------
TotEng   =    -24973.7992 KinEng   =     21621.3381 Temp     =       301.5010 
PotEng   =    -46595.1373 E_bond   =      2595.5012 E_angle  =     11127.2157 
E_dihed  =      5313.3955 E_impro  =       234.3209 E_vdwl   =     -2080.8879 
E_coul   =    210445.2095 E_long   =   -274229.8924 Press    =      -236.9371 
Volume   =    308675.1485 
---------------- Step     6700 ----- CPU =     13.7322 (sec) ----------------
TotEng   =    -24923.7090 KinEng   =     21591.8954 Temp     =       301.0904 
PotEng   =    -46515.6044 E_bond   =      2638.9033 E_angle  =     11133.2480 
E_dihed  =      5284.8538 E_impro  =       239.4928 E_vdwl   =     -2155.0541 
E_coul   =    210555.2762 E_long   =   -274212.3245 Press    =       295.1390 
Volume   =    308645.3728 
---------------- Step     6750 ----- CPU =     13.8304 (sec) ----------------
TotEng   =    -25060.4387 KinEng   =     21534.5227 Temp     =       300.2904 
PotEng   =    -46594.9614 E_bond   =      2543.1848 E_angle  =     11066.8293 
E_dihed  =      5306.2842 E_impro  =       230.5529 E_vdwl   =     -2049.6817 
E_coul   =    210524.0783 E_long   =   -274216.2091 Press    =       263.6120 
Volume   =    308572.2798 
---------------- Step     6800 ----- CPU =     13.9302 (sec) ----------------
TotEng   =    -25245.1842 KinEng   =     21544.5905 Temp     =       300.4308 
PotEng   =    -46789.7746 E_bond   =      2639.4409 E_angle  =     11038.1100 
E_dihed  =      5289.2414 E_impro  =       236.0602 E_vdwl   =     -2048.1928 
E_coul   =    210271.0774 E_long   =   -274215.5118 Press    =      -113.0173 
Volume   =    308518.4918 
---------------- Step     6850 ----- CPU =     14.0329 (sec) ----------------
TotEng   =    -25364.7422 KinEng   =     21484.0680 Temp     =       299.5868 
PotEng   =    -46848.8103 E_bond   =      2581.5993 E_angle  =     10986.0292 
E_dihed  =      5245.6629 E_impro  =       246.7112 E_vdwl   =     -2170.6883 
E_coul   =    210477.4433 E_long   =   -274215.5678 Press    =      -163.9072 
Volume   =    308554.8898 
---------------- Step     6900 ----- CPU =     14.1334 (sec) ----------------
TotEng   =    -25319.1205 KinEng   =     21518.2291 Temp     =       300.0632 
PotEng   =    -46837.3496 E_bond   =      2644.5499 E_angle  =     11001.0186 
E_dihed  =      5284.3141 E_impro  =       227.9834 E_vdwl   =     -2016.6332 
E_coul   =    210258.0504 E_long   =   -274236.6329 Press    =        50.8718 
Volume   =    308532.4982 
---------------- Step     6950 ----- CPU =     14.2329 (sec) ----------------
TotEng   =    -25174.2450 KinEng   =     21500.1964 Temp     =       299.8117 
PotEng   =    -46674.4414 E_bond   =      2586.1724 E_angle  =     11206.3661 
E_dihed  =      5229.7279 E_impro  =       217.6915 E_vdwl   =     -1878.9722 
E_coul   =    210199.0579 E_long   =   -274234.4851 Press    =       192.6877 
Volume   =    308504.9835 
---------------- Step     7000 ----- CPU =     14.3327 (sec) ----------------
TotEng   =    -25034.3935 KinEng   =     21608.3826 Temp     =       301.3203 
PotEng   =    -46642.7762 E_bond   =      2645.4808 E_angle  =     11157.8420 
E_dihed  =      5237.0873 E_impro  =       225.5623 E_vdwl   =     -1983.5771 
E_coul   =    210291.5013 E_long   =   -274216.6728 Press    =      -242.7188 
Volume   =    308534.1203 
---------------- Step     7050 ----- CPU =     14.4321 (sec) ----------------
TotEng   =    -25084.2370 KinEng   =     21670.5856 Temp     =       302.1877 
PotEng   =    -46754.8225 E_bond   =      2638.8396 E_angle  =     11121.9672 
E_dihed  =      5281.4868 E_impro  =       226.2792 E_vdwl   =     -2193.0320 
E_coul   =    210386.5912 E_long   =   -274216.9545 Press    =      -383.1273 
Volume   =    308477.1939 
---------------- Step     7100 ----- CPU =     14.5337 (sec) ----------------
TotEng   =    -25360.7574 KinEng   =     21445.6495 Temp     =       299.0511 
PotEng   =    -46806.4069 E_bond   =      2547.7820 E_angle  =     11100.6652 
E_dihed  =      5286.8047 E_impro  =       235.0212 E_vdwl   =     -1871.6874 
E_coul   =    210120.3930 E_long   =   -274225.3854 Press    =       312.6245 
Volume   =    308198.4773 
---------------- Step     7150 ----- CPU =     14.6351 (sec) ----------------
TotEng   =    -25627.2163 KinEng   =     21379.0050 Temp     =       298.1218 
PotEng   =    -47006.2213 E_bond   =      2586.5515 E_angle  =     11059.5554 
E_dihed  =      5258.8032 E_impro  =       221.8766 E_vdwl   =     -2005.4818 
E_coul   =    210099.4386 E_long   =   -274226.9650 Press    =      -111.8893 
Volume   =    307859.2293 
---------------- Step     7200 ----- CPU =     14.7350 (sec) ----------------
TotEng   =    -25668.8093 KinEng   =     21364.9867 Temp     =       297.9263 
PotEng   =    -47033.7961 E_bond   =      2588.7158 E_angle  =     11096.9548 
E_dihed  =      5205.1277 E_impro  =       215.8388 E_vdwl   =     -2158.6504 
E_coul   =    210232.9889 E_long   =   -274214.7718 Press    =      -116.0729 
Volume   =    307551.6584 
---------------- Step     7250 ----- CPU =     14.8367 (sec) ----------------
TotEng   =    -25435.8718 KinEng   =     21575.3451 Temp     =       300.8596 
PotEng   =    -47011.2170 E_bond   =      2586.5315 E_angle  =     11053.1016 
E_dihed  =      5225.7195 E_impro  =       213.5507 E_vdwl   =     -2058.6286 
E_coul   =    210194.8948 E_long   =   -274226.3864 Press    =      -161.8920 
Volume   =    307242.6197 
---------------- Step     7300 ----- CPU =     14.9379 (sec) ----------------
TotEng   =    -25122.6856 KinEng   =     21634.0777 Temp     =       301.6786 
PotEng   =    -46756.7633 E_bond   =      2620.8016 E_angle  =     11144.3621 
E_dihed  =      5216.3734 E_impro  =       222.7493 E_vdwl   =     -2055.1933 
E_coul   =    210308.8115 E_long   =   -274214.6679 Press    =         9.0291 
Volume   =    307138.2894 
---------------- Step     7350 ----- CPU =     15.0420 (sec) ----------------
TotEng   =    -24956.1750 KinEng   =     21605.0294 Temp     =       301.2736 
PotEng   =    -46561.2044 E_bond   =      2668.4447 E_angle  =     11150.9744 
E_dihed  =      5242.5972 E_impro  =       214.7748 E_vdwl   =     -2185.5478 
E_coul   =    210561.5597 E_long   =   -274214.0075 Press    =       -20.2090 
Volume   =    307161.5294 
---------------- Step     7400 ----- CPU =     15.1583 (sec) ----------------
TotEng   =    -25063.6514 KinEng   =     21677.7174 Temp     =       302.2872 
PotEng   =    -46741.3687 E_bond   =      2617.2742 E_angle  =     11217.7982 
E_dihed  =      5242.4212 E_impro  =       211.1117 E_vdwl   =     -2080.2645 
E_coul   =    210279.4497 E_long   =   -274229.1593 Press    =       145.5872 
Volume   =    307353.7940 
---------------- Step     7450 ----- CPU =     15.2751 (sec) ----------------
TotEng   =    -25346.2680 KinEng   =     21445.1881 Temp     =       299.0446 
PotEng   =    -46791.4560 E_bond   =      2602.8907 E_angle  =     11209.0285 
E_dihed  =      5257.9532 E_impro  =       237.4076 E_vdwl   =     -2211.3497 
E_coul   =    210315.0724 E_long   =   -274202.4588 Press    =      -229.0182 
Volume   =    307724.7224 
---------------- Step     7500 ----- CPU =     15.3884 (sec) ----------------
TotEng   =    -25550.9105 KinEng   =     21327.1014 Temp     =       297.3980 
PotEng   =    -46878.0119 E_bond   =      2629.3818 E_angle  =     11115.6503 
E_dihed  =      5281.8365 E_impro  =       212.8091 E_vdwl   =     -2005.1929 
E_coul   =    210103.0304 E_long   =   -274215.5270 Press    =      -105.4169 
Volume   =    307980.9843 
---------------- Step     7550 ----- CPU =     15.4889 (sec) ----------------
TotEng   =    -25486.4672 KinEng   =     21323.6002 Temp     =       297.3492 
PotEng   =    -46810.0674 E_bond   =      2630.7363 E_angle  =     11216.1304 
E_dihed  =      5228.9570 E_impro  =       218.4804 E_vdwl   =     -2016.6154 
E_coul   =    210138.2334 E_long   =   -274225.9894 Press    =      -107.5301 
Volume   =    308148.5295 
---------------- Step     7600 ----- CPU =     15.5883 (sec) ----------------
TotEng   =    -25313.2906 KinEng   =     21421.0460 Temp     =       298.7080 
PotEng   =    -46734.3366 E_bond   =      2605.2585 E_angle  =     11068.2055 
E_dihed  =      5307.1336 E_impro  =       233.5314 E_vdwl   =     -2027.8167 
E_coul   =    210283.0371 E_long   =   -274203.6860 Press    =       -47.2220 
Volume   =    308180.0548 
---------------- Step     7650 ----- CPU =     15.6915 (sec) ----------------
TotEng   =    -24975.9758 KinEng   =     21523.3298 Temp     =       300.1343 
PotEng   =    -46499.3056 E_bond   =      2618.6911 E_angle  =     11296.0497 
E_dihed  =      5288.2887 E_impro  =       238.8039 E_vdwl   =     -2060.8142 
E_coul   =    210326.7886 E_long   =   -274207.1135 Press    =        63.5111 
Volume   =    308125.0764 
---------------- Step     7700 ----- CPU =     15.7900 (sec) ----------------
TotEng   =    -24851.4997 KinEng   =     21693.6013 Temp     =       302.5087 
PotEng   =    -46545.1010 E_bond   =      2537.3981 E_angle  =     11179.1654 
E_dihed  =      5310.2502 E_impro  =       228.9404 E_vdwl   =     -1961.9968 
E_coul   =    210381.8002 E_long   =   -274220.6585 Press    =        66.6111 
Volume   =    308091.7908 
---------------- Step     7750 ----- CPU =     15.8916 (sec) ----------------
TotEng   =    -25061.7797 KinEng   =     21678.9771 Temp     =       302.3047 
PotEng   =    -46740.7568 E_bond   =      2612.5051 E_angle  =     11126.9360 
E_dihed  =      5291.3238 E_impro  =       220.6323 E_vdwl   =     -2189.3414 
E_coul   =    210419.6270 E_long   =   -274222.4396 Press    =      -128.8047 
Volume   =    308205.6683 
---------------- Step     7800 ----- CPU =     15.9924 (sec) ----------------
TotEng   =    -25431.2472 KinEng   =     21323.2567 Temp     =       297.3444 
PotEng   =    -46754.5039 E_bond   =      2614.1753 E_angle  =     11044.9793 
E_dihed  =      5292.1929 E_impro  =       242.2435 E_vdwl   =     -2033.5945 
E_coul   =    210275.3601 E_long   =   -274189.8604 Press    =      -256.9831 
Volume   =    308239.3512 
---------------- Step     7850 ----- CPU =     16.0936 (sec) ----------------
TotEng   =    -25523.6270 KinEng   =     21275.9355 Temp     =       296.6845 
PotEng   =    -46799.5625 E_bond   =      2641.9176 E_angle  =     11029.9452 
E_dihed  =      5280.9740 E_impro  =       217.4948 E_vdwl   =     -2146.2717 
E_coul   =    210386.6898 E_long   =   -274210.3121 Press    =      -358.0172 
Volume   =    308187.1966 
---------------- Step     7900 ----- CPU =     16.1943 (sec) ----------------
TotEng   =    -25322.7482 KinEng   =     21504.1441 Temp     =       299.8668 
PotEng   =    -46826.8923 E_bond   =      2617.7974 E_angle  =     11088.6682 
E_dihed  =      5276.4348 E_impro  =       215.8896 E_vdwl   =     -2006.6165 
E_coul   =    210206.1151 E_long   =   -274225.1809 Press    =        14.1156 
Volume   =    307954.3057 
---------------- Step     7950 ----- CPU =     16.2977 (sec) ----------------
TotEng   =    -25140.0626 KinEng   =     21640.9053 Temp     =       301.7738 
PotEng   =    -46780.9679 E_bond   =      2610.8331 E_angle  =     11069.3050 
E_dihed  =      5261.9210 E_impro  =       210.3373 E_vdwl   =     -2057.6168 
E_coul   =    210323.6841 E_long   =   -274199.4317 Press    =       143.2757 
Volume   =    307811.6191 
---------------- Step     8000 ----- CPU =     16.3969 (sec) ----------------
TotEng   =    -25127.0857 KinEng   =     21653.2893 Temp     =       301.9465 
PotEng   =    -46780.3749 E_bond   =      2673.1003 E_angle  =     11147.8035 
E_dihed  =      5273.7536 E_impro  =       241.6913 E_vdwl   =     -2144.7158 
E_coul   =    210253.2691 E_long   =   -274225.2770 Press    =      -281.5799 
Volume   =    307637.1129 
---------------- Step     8050 ----- CPU =     16.4961 (sec) ----------------
TotEng   =    -25349.0011 KinEng   =     21428.7435 Temp     =       298.8153 
PotEng   =    -46777.7447 E_bond   =      2601.6973 E_angle  =     11215.0415 
E_dihed  =      5256.2577 E_impro  =       237.9565 E_vdwl   =     -1955.0466 
E_coul   =    210085.0298 E_long   =   -274218.6810 Press    =       347.0889 
Volume   =    307496.3922 
---------------- Step     8100 ----- CPU =     16.5959 (sec) ----------------
TotEng   =    -25601.5002 KinEng   =     21271.6669 Temp     =       296.6250 
PotEng   =    -46873.1671 E_bond   =      2631.5421 E_angle  =     10963.9129 
E_dihed  =      5350.0406 E_impro  =       210.6717 E_vdwl   =     -2059.9117 
E_coul   =    210266.0294 E_long   =   -274235.4520 Press    =      -303.3471 
Volume   =    307453.0335 
---------------- Step     8150 ----- CPU =     16.6978 (sec) ----------------
TotEng   =    -25565.9243 KinEng   =     21567.2813 Temp     =       300.7472 
PotEng   =    -47133.2056 E_bond   =      2543.2589 E_angle  =     10978.6555 
E_dihed  =      5267.4749 E_impro  =       239.9822 E_vdwl   =     -1891.0894 
E_coul   =    209951.2809 E_long   =   -274222.7687 Press    =        20.4402 
Volume   =    307434.9310 
---------------- Step     8200 ----- CPU =     16.8016 (sec) ----------------
TotEng   =    -25373.6329 KinEng   =     21392.2152 Temp     =       298.3060 
PotEng   =    -46765.8481 E_bond   =      2646.5060 E_angle  =     11201.5843 
E_dihed  =      5279.7590 E_impro  =       226.8996 E_vdwl   =     -1956.4646 
E_coul   =    210059.7840 E_long   =   -274223.9164 Press    =        20.8015 
Volume   =    307403.9204 
---------------- Step     8250 ----- CPU =     16.9041 (sec) ----------------
TotEng   =    -25170.2837 KinEng   =     21650.0721 Temp     =       301.9017 
PotEng   =    -46820.3558 E_bond   =      2630.0060 E_angle  =     11108.2483 
E_dihed  =      5239.0129 E_impro  =       225.1585 E_vdwl   =     -2171.7502 
E_coul   =    210350.5679 E_long   =   -274201.5991 Press    =      -140.7991 
Volume   =    307500.1888 
---------------- Step     8300 ----- CPU =     17.0060 (sec) ----------------
TotEng   =    -25157.9466 KinEng   =     21519.9488 Temp     =       300.0872 
PotEng   =    -46677.8954 E_bond   =      2604.5951 E_angle  =     11152.6702 
E_dihed  =      5274.4464 E_impro  =       227.4507 E_vdwl   =     -1917.9555 
E_coul   =    210205.0153 E_long   =   -274224.1178 Press    =        79.0596 
Volume   =    307619.7802 
---------------- Step     8350 ----- CPU =     17.1043 (sec) ----------------
TotEng   =    -25281.7298 KinEng   =     21514.9554 Temp     =       300.0175 
PotEng   =    -46796.6852 E_bond   =      2615.7416 E_angle  =     11181.1266 
E_dihed  =      5242.3899 E_impro  =       221.4488 E_vdwl   =     -1957.9390 
E_coul   =    210112.5982 E_long   =   -274212.0513 Press    =      -128.9066 
Volume   =    307955.1497 
---------------- Step     8400 ----- CPU =     17.2078 (sec) ----------------
TotEng   =    -25421.9011 KinEng   =     21529.7990 Temp     =       300.2245 
PotEng   =    -46951.7001 E_bond   =      2577.9717 E_angle  =     11070.3345 
E_dihed  =      5231.8530 E_impro  =       218.1169 E_vdwl   =     -1948.0808 
E_coul   =    210126.4510 E_long   =   -274228.3465 Press    =       200.5622 
Volume   =    308203.5943 
---------------- Step     8450 ----- CPU =     17.3069 (sec) ----------------
TotEng   =    -25388.6756 KinEng   =     21315.7544 Temp     =       297.2397 
PotEng   =    -46704.4300 E_bond   =      2584.9705 E_angle  =     11148.2514 
E_dihed  =      5238.4424 E_impro  =       236.9537 E_vdwl   =     -1984.8556 
E_coul   =    210298.8856 E_long   =   -274227.0781 Press    =       278.4231 
Volume   =    308478.8199 
---------------- Step     8500 ----- CPU =     17.4049 (sec) ----------------
TotEng   =    -25185.7897 KinEng   =     21613.6715 Temp     =       301.3941 
PotEng   =    -46799.4611 E_bond   =      2626.4297 E_angle  =     11240.5930 
E_dihed  =      5201.5057 E_impro  =       230.6367 E_vdwl   =     -2208.9209 
E_coul   =    210330.4868 E_long   =   -274220.1922 Press    =      -516.6588 
Volume   =    308649.2336 
---------------- Step     8550 ----- CPU =     17.5038 (sec) ----------------
TotEng   =    -25074.8810 KinEng   =     21486.7236 Temp     =       299.6238 
PotEng   =    -46561.6046 E_bond   =      2558.2748 E_angle  =     11161.3788 
E_dihed  =      5337.7076 E_impro  =       230.5199 E_vdwl   =     -2253.6606 
E_coul   =    210608.4832 E_long   =   -274204.3084 Press    =      -144.1994 
Volume   =    308528.5383 
---------------- Step     8600 ----- CPU =     17.6064 (sec) ----------------
TotEng   =    -25068.6563 KinEng   =     21697.6426 Temp     =       302.5650 
PotEng   =    -46766.2989 E_bond   =      2555.2810 E_angle  =     11172.7941 
E_dihed  =      5266.1451 E_impro  =       233.8284 E_vdwl   =     -1953.5039 
E_coul   =    210173.1623 E_long   =   -274214.0058 Press    =       242.3753 
Volume   =    308380.0025 
---------------- Step     8650 ----- CPU =     17.7040 (sec) ----------------
TotEng   =    -25282.5795 KinEng   =     21418.8832 Temp     =       298.6778 
PotEng   =    -46701.4627 E_bond   =      2610.4195 E_angle  =     11214.1312 
E_dihed  =      5236.6640 E_impro  =       212.7754 E_vdwl   =     -2047.2208 
E_coul   =    210275.3571 E_long   =   -274203.5893 Press    =       142.4474 
Volume   =    308224.7959 
---------------- Step     8700 ----- CPU =     17.8042 (sec) ----------------
TotEng   =    -25479.3197 KinEng   =     21590.9064 Temp     =       301.0766 
PotEng   =    -47070.2261 E_bond   =      2561.5424 E_angle  =     10999.3598 
E_dihed  =      5228.4288 E_impro  =       212.9655 E_vdwl   =     -2245.7343 
E_coul   =    210392.7909 E_long   =   -274219.5792 Press    =        21.9403 
Volume   =    308126.0004 
---------------- Step     8750 ----- CPU =     17.9046 (sec) ----------------
TotEng   =    -25489.9030 KinEng   =     21432.8689 Temp     =       298.8729 
PotEng   =    -46922.7719 E_bond   =      2596.0133 E_angle  =     11132.4753 
E_dihed  =      5237.0655 E_impro  =       216.3262 E_vdwl   =     -2175.7146 
E_coul   =    210281.4100 E_long   =   -274210.3476 Press    =      -451.4268 
Volume   =    307902.1154 
---------------- Step     8800 ----- CPU =     18.0079 (sec) ----------------
TotEng   =    -25358.0869 KinEng   =     21564.8217 Temp     =       300.7129 
PotEng   =    -46922.9086 E_bond   =      2521.8785 E_angle  =     11145.0297 
E_dihed  =      5203.6916 E_impro  =       211.4939 E_vdwl   =     -2156.0864 
E_coul   =    210363.7396 E_long   =   -274212.6555 Press    =       207.3406 
Volume   =    307541.7844 
---------------- Step     8850 ----- CPU =     18.1094 (sec) ----------------
TotEng   =    -25227.0217 KinEng   =     21650.4146 Temp     =       301.9065 
PotEng   =    -46877.4364 E_bond   =      2582.1945 E_angle  =     10936.2860 
E_dihed  =      5222.4167 E_impro  =       224.4986 E_vdwl   =     -2149.8335 
E_coul   =    210534.1798 E_long   =   -274227.1785 Press    =       306.9220 
Volume   =    307168.2951 
---------------- Step     8900 ----- CPU =     18.2113 (sec) ----------------
TotEng   =    -25137.4575 KinEng   =     21508.3297 Temp     =       299.9251 
PotEng   =    -46645.7872 E_bond   =      2583.9007 E_angle  =     11304.4616 
E_dihed  =      5209.5692 E_impro  =       225.2957 E_vdwl   =     -1811.6894 
E_coul   =    210069.5097 E_long   =   -274226.8347 Press    =       411.7436 
Volume   =    306963.1383 
---------------- Step     8950 ----- CPU =     18.3151 (sec) ----------------
TotEng   =    -25227.3671 KinEng   =     21695.4852 Temp     =       302.5349 
PotEng   =    -46922.8523 E_bond   =      2613.0228 E_angle  =     11060.9107 
E_dihed  =      5257.9886 E_impro  =       234.1999 E_vdwl   =     -1870.9963 
E_coul   =    210014.8760 E_long   =   -274232.8539 Press    =       262.6756 
Volume   =    307049.0890 
---------------- Step     9000 ----- CPU =     18.4157 (sec) ----------------
TotEng   =    -25427.1290 KinEng   =     21473.2960 Temp     =       299.4366 
PotEng   =    -46900.4250 E_bond   =      2608.0172 E_angle  =     11038.6847 
E_dihed  =      5236.6654 E_impro  =       223.2640 E_vdwl   =     -1818.9881 
E_coul   =    210020.8240 E_long   =   -274208.8921 Press    =       211.3952 
Volume   =    307523.9165 
---------------- Step     9050 ----- CPU =     18.5150 (sec) ----------------
TotEng   =    -25545.8184 KinEng   =     21417.2211 Temp     =       298.6547 
PotEng   =    -46963.0395 E_bond   =      2580.3202 E_angle  =     11090.3102 
E_dihed  =      5193.0882 E_impro  =       231.3205 E_vdwl   =     -2083.9442 
E_coul   =    210226.6627 E_long   =   -274200.7971 Press    =      -538.1337 
Volume   =    308215.3682 
---------------- Step     9100 ----- CPU =     18.6153 (sec) ----------------
TotEng   =    -25402.2216 KinEng   =     21374.3235 Temp     =       298.0565 
PotEng   =    -46776.5451 E_bond   =      2612.6005 E_angle  =     11023.1987 
E_dihed  =      5240.1042 E_impro  =       236.4994 E_vdwl   =     -2083.8622 
E_coul   =    210403.9093 E_long   =   -274208.9950 Press    =       180.7894 
Volume   =    308844.7896 
---------------- Step     9150 ----- CPU =     18.7140 (sec) ----------------
TotEng   =    -25095.3770 KinEng   =     21682.9453 Temp     =       302.3601 
PotEng   =    -46778.3223 E_bond   =      2628.0333 E_angle  =     11160.2464 
E_dihed  =      5176.3874 E_impro  =       238.1070 E_vdwl   =     -2185.5353 
E_coul   =    210401.1969 E_long   =   -274196.7580 Press    =      -180.2910 
Volume   =    309226.2108 
---------------- Step     9200 ----- CPU =     18.8120 (sec) ----------------
TotEng   =    -24986.3414 KinEng   =     21702.4311 Temp     =       302.6318 
PotEng   =    -46688.7724 E_bond   =      2638.6657 E_angle  =     11111.8380 
E_dihed  =      5254.3402 E_impro  =       219.1300 E_vdwl   =     -2083.1688 
E_coul   =    210398.3669 E_long   =   -274227.9445 Press    =      -424.3584 
Volume   =    309359.7361 
---------------- Step     9250 ----- CPU =     18.9120 (sec) ----------------
TotEng   =    -25112.4134 KinEng   =     21421.4763 Temp     =       298.7140 
PotEng   =    -46533.8896 E_bond   =      2577.9870 E_angle  =     11157.7749 
E_dihed  =      5231.4375 E_impro  =       215.8020 E_vdwl   =     -2017.9798 
E_coul   =    210501.2032 E_long   =   -274200.1144 Press    =       -56.0192 
Volume   =    309374.9201 
---------------- Step     9300 ----- CPU =     19.0113 (sec) ----------------
TotEng   =    -25344.1544 KinEng   =     21409.7914 Temp     =       298.5511 
PotEng   =    -46753.9458 E_bond   =      2566.8986 E_angle  =     11024.4730 
E_dihed  =      5209.6544 E_impro  =       237.7569 E_vdwl   =     -1984.8451 
E_coul   =    210380.4255 E_long   =   -274188.3092 Press    =       -39.5290 
Volume   =    309359.7830 
---------------- Step     9350 ----- CPU =     19.1115 (sec) ----------------
TotEng   =    -25401.2018 KinEng   =     21494.7644 Temp     =       299.7360 
PotEng   =    -46895.9662 E_bond   =      2600.8624 E_angle  =     11077.1329 
E_dihed  =      5179.7672 E_impro  =       220.3636 E_vdwl   =     -1980.0105 
E_coul   =    210218.9377 E_long   =   -274213.0196 Press    =       -23.7274 
Volume   =    309385.3806 
---------------- Step     9400 ----- CPU =     19.2104 (sec) ----------------
TotEng   =    -25348.9658 KinEng   =     21471.9339 Temp     =       299.4176 
PotEng   =    -46820.8997 E_bond   =      2645.3782 E_angle  =     11008.6183 
E_dihed  =      5244.1538 E_impro  =       215.8294 E_vdwl   =     -2204.9329 
E_coul   =    210492.2841 E_long   =   -274222.2305 Press    =      -405.9082 
Volume   =    309419.9213 
---------------- Step     9450 ----- CPU =     19.3073 (sec) ----------------
TotEng   =    -25173.7793 KinEng   =     21469.4340 Temp     =       299.3827 
PotEng   =    -46643.2132 E_bond   =      2685.0041 E_angle  =     10994.6745 
E_dihed  =      5199.1218 E_impro  =       224.3950 E_vdwl   =     -1999.0794 
E_coul   =    210463.0533 E_long   =   -274210.3824 Press    =      -237.8470 
Volume   =    309234.3340 
---------------- Step     9500 ----- CPU =     19.4059 (sec) ----------------
TotEng   =    -25076.7142 KinEng   =     21527.7405 Temp     =       300.1958 
PotEng   =    -46604.4547 E_bond   =      2576.6629 E_angle  =     11219.1935 
E_dihed  =      5276.8284 E_impro  =       212.7140 E_vdwl   =     -1920.5275 
E_coul   =    210237.9299 E_long   =   -274207.2561 Press    =       206.9759 
Volume   =    308989.9907 
---------------- Step     9550 ----- CPU =     19.5060 (sec) ----------------
TotEng   =    -25220.8501 KinEng   =     21795.1775 Temp     =       303.9251 
PotEng   =    -47016.0276 E_bond   =      2550.8903 E_angle  =     11074.7997 
E_dihed  =      5204.8761 E_impro  =       236.0879 E_vdwl   =     -2023.1978 
E_coul   =    210155.3073 E_long   =   -274214.7911 Press    =       241.0748 
Volume   =    308786.9468 
---------------- Step     9600 ----- CPU =     19.6039 (sec) ----------------
TotEng   =    -25454.3050 KinEng   =     21441.6375 Temp     =       298.9951 
PotEng   =    -46895.9425 E_bond   =      2575.1784 E_angle  =     11073.4498 
E_dihed  =      5234.9420 E_impro  =       218.6220 E_vdwl   =     -2072.6302 
E_coul   =    210290.3002 E_long   =   -274215.8048 Press    =        19.6161 
Volume   =    308632.6057 
---------------- Step     9650 ----- CPU =     19.7046 (sec) ----------------
TotEng   =    -25546.8730 KinEng   =     21438.7913 Temp     =       298.9554 
PotEng   =    -46985.6643 E_bond   =      2565.5422 E_angle  =     11139.2435 
E_dihed  =      5215.7736 E_impro  =       246.4415 E_vdwl   =     -1969.2180 
E_coul   =    210033.0331 E_long   =   -274216.4802 Press    =        29.4282 
Volume   =    308433.9405 
---------------- Step     9700 ----- CPU =     19.8014 (sec) ----------------
TotEng   =    -25371.3237 KinEng   =     21359.2402 Temp     =       297.8461 
PotEng   =    -46730.5640 E_bond   =      2589.2391 E_angle  =     11123.9053 
E_dihed  =      5276.9317 E_impro  =       230.0859 E_vdwl   =     -2014.2699 
E_coul   =    210283.8897 E_long   =   -274220.3457 Press    =        79.5031 
Volume   =    308209.9623 
---------------- Step     9750 ----- CPU =     19.9013 (sec) ----------------
TotEng   =    -25109.1740 KinEng   =     21602.5455 Temp     =       301.2389 
PotEng   =    -46711.7195 E_bond   =      2594.2319 E_angle  =     11142.6497 
E_dihed  =      5290.1518 E_impro  =       230.0105 E_vdwl   =     -1943.9135 
E_coul   =    210180.6726 E_long   =   -274205.5223 Press    =       295.2430 
Volume   =    308065.5788 
---------------- Step     9800 ----- CPU =     19.9989 (sec) ----------------
TotEng   =    -25004.1759 KinEng   =     21668.9744 Temp     =       302.1653 
PotEng   =    -46673.1502 E_bond   =      2594.0268 E_angle  =     11313.3741 
E_dihed  =      5217.6660 E_impro  =       233.2775 E_vdwl   =     -1894.3238 
E_coul   =    210078.2902 E_long   =   -274215.4610 Press    =       105.6150 
Volume   =    308100.2012 
---------------- Step     9850 ----- CPU =     20.0965 (sec) ----------------
TotEng   =    -25246.7128 KinEng   =     21453.6416 Temp     =       299.1625 
PotEng   =    -46700.3544 E_bond   =      2633.2374 E_angle  =     11134.4614 
E_dihed  =      5218.7976 E_impro  =       248.3567 E_vdwl   =     -2060.2119 
E_coul   =    210353.4120 E_long   =   -274228.4076 Press    =      -118.8979 
Volume   =    308330.7090 
---------------- Step     9900 ----- CPU =     20.1962 (sec) ----------------
TotEng   =    -25454.9158 KinEng   =     21443.4272 Temp     =       299.0201 
PotEng   =    -46898.3431 E_bond   =      2616.3367 E_angle  =     11062.0830 
E_dihed  =      5175.2615 E_impro  =       221.9188 E_vdwl   =     -2102.9821 
E_coul   =    210338.3020 E_long   =   -274209.2629 Press    =      -186.7944 
Volume   =    308397.5137 
---------------- Step     9950 ----- CPU =     20.2994 (sec) ----------------
TotEng   =    -25475.6205 KinEng   =     21354.6881 Temp     =       297.7827 
PotEng   =    -46830.3086 E_bond   =      2622.8690 E_angle  =     11100.9814 
E_dihed  =      5257.1727 E_impro  =       221.9941 E_vdwl   =     -1906.1356 
E_coul   =    210102.4762 E_long   =   -274229.6663 Press    =       -85.7242 
Volume   =    308399.6851 
---------------- Step    10000 ----- CPU =     20.3970 (sec) ----------------
TotEng   =    -25335.5864 KinEng   =     21567.3869 Temp     =       300.7487 
PotEng   =    -46902.9732 E_bond   =      2612.7362 E_angle  =     11065.7150 
E_dihed  =      5189.8156 E_impro  =       237.2837 E_vdwl   =     -2047.7881 
E_coul   =    210247.3105 E_long   =   -274208.0462 Press    =      -219.3243 
Volume   =    308362.8927 
Loop time of 20.397 on 64 procs for 10000 steps with 32000 atoms

Performance: 84.718 ns/day, 0.283 hours/ns, 490.267 timesteps/s
97.1% CPU use with 64 MPI tasks x 1 OpenMP threads

MPI task timing breakdown:
Section |  min time  |  avg time  |  max time  |%varavg| %total
---------------------------------------------------------------
Pair    | 7.5541     | 8.3374     | 8.9828     |  11.5 | 40.88
Bond    | 0.088698   | 0.53256    | 0.86972    |  34.3 |  2.61
Kspace  | 4.1469     | 5.0283     | 5.72       |  15.1 | 24.65
Neigh   | 1.4698     | 1.4793     | 1.4917     |   0.4 |  7.25
Comm    | 1.8668     | 1.9514     | 2.0145     |   2.2 |  9.57
Output  | 0.011042   | 0.011199   | 0.015697   |   0.5 |  0.05
Modify  | 2.695      | 2.8258     | 2.9258     |   3.5 | 13.85
Other   |            | 0.2311     |            |       |  1.13

Nlocal:            500 ave         540 max         466 min
Histogram: 4 4 12 8 8 8 10 4 5 1
Nghost:         6635.7 ave        6748 max        6524 min
Histogram: 3 1 8 13 10 7 10 4 4 4
Neighs:         187788 ave      206545 max      165227 min
Histogram: 2 1 8 8 7 10 10 10 4 4

Total # of neighbors = 12018400
Ave neighs/atom = 375.575
Ave special neighs/atom = 7.431875
Neighbor list builds = 1075
Dangerous builds = 0
Total wall time: 0:00:20
Intel(R) VTune(TM) Profiler 2022.2.0 collection completed successfully. Use the "aps --report /home/ubuntu/lammps/bench/aps_result_20220703" command to generate textual and HTML reports for the profiling session.
