LAMMPS (7 Jan 2022)
  using 1 OpenMP thread(s) per MPI task
Reading data file ...
  orthogonal box = (-27.5 -38.5 -36.3646) to (27.5 38.5 36.3615)
  2 by 4 by 4 MPI processor grid
  reading atoms ...
  32000 atoms
  reading velocities ...
  32000 velocities
  scanning bonds ...
  4 = max bonds/atom
  scanning angles ...
  8 = max angles/atom
  scanning dihedrals ...
  18 = max dihedrals/atom
  scanning impropers ...
  2 = max impropers/atom
  reading bonds ...
  27723 bonds
  reading angles ...
  40467 angles
  reading dihedrals ...
  56829 dihedrals
  reading impropers ...
  1034 impropers
Finding 1-2 1-3 1-4 neighbors ...
  special bond factors lj:    0        0        0       
  special bond factors coul:  0        0        0       
     4 = max # of 1-2 neighbors
    12 = max # of 1-3 neighbors
    24 = max # of 1-4 neighbors
    26 = max # of special neighbors
  special bonds CPU = 0.005 seconds
  read_data CPU = 0.257 seconds
Replicating atoms ...
  orthogonal box = (-27.5 -38.5 -36.3646) to (192.5 269.5 254.5398)
  2 by 4 by 4 MPI processor grid
  2048000 atoms
  1774272 bonds
  2589888 angles
  3637056 dihedrals
  66176 impropers
Finding 1-2 1-3 1-4 neighbors ...
  special bond factors lj:    0        0        0       
  special bond factors coul:  0        0        0       
     4 = max # of 1-2 neighbors
    12 = max # of 1-3 neighbors
    24 = max # of 1-4 neighbors
    26 = max # of special neighbors
  special bonds CPU = 0.065 seconds
  replicate CPU = 0.131 seconds
Finding SHAKE clusters ...
  103488 = # of size 2 clusters
  232512 = # of size 3 clusters
   47808 = # of size 4 clusters
  270912 = # of frozen angles
  find clusters CPU = 0.031 seconds
PPPM initialization ...
  using 12-bit tables for long-range coulomb (../kspace.cpp:340)
  G vector (1/distance) = 0.36082601
  grid = 270 360 324
  stencil order = 7
  estimated absolute RMS force accuracy = 3.9645452e-05
  estimated relative force accuracy = 1.193911e-07
  using single precision MKL FFT
  3d grid and FFT values/proc = 1283040 1069200
----------------------------------------------------------
Using INTEL Package without Coprocessor.
Compiler: Intel Classic C++ 20.21.5 / Intel(R) C++ g++ 9.3 mode
SIMD compiler directives: Enabled
Precision: mixed
----------------------------------------------------------
  generated 2278 of 2278 mixed pair_coeff terms from arithmetic mixing rule
Neighbor list info ...
  update every 1 steps, delay 5 steps, check yes
  max neighbors/atom: 2000, page size: 100000
  master list distance cutoff = 12
  ghost atom cutoff = 12
  binsize = 6, bins = 37 52 49
  1 neighbor lists, perpetual/occasional/extra = 1 0 0
  (1) pair lj/charmm/coul/long/intel, perpetual
      attributes: half, newton on, intel
      pair build: half/bin/newton/intel
      stencil: half/bin/3d
      bin: intel
Setting up Verlet run ...
  Unit style    : real
  Current step  : 0
  Time step     : 2
Per MPI rank memory allocation (min/avg/max) = 805.9 | 806.7 | 812.1 Mbytes
---------------- Step        0 ----- CPU =      0.0000 (sec) ----------------
TotEng   =  -1622977.8262 KinEng   =   1372469.2022 Temp     =       299.0274 
PotEng   =  -2995447.0283 E_bond   =    162431.7410 E_angle  =    698967.9457 
E_dihed  =    333554.2808 E_impro  =     13664.8915 E_vdwl   =   -147703.2770 
E_coul   =  20972498.9632 E_long   = -25028861.5737 Press    =      -152.9857 
Volume   =  19711682.1440 
---------------- Step       50 ----- CPU =     22.0896 (sec) ----------------
TotEng   =  -1621297.9579 KinEng   =   1376086.3273 Temp     =       299.8155 
PotEng   =  -2997384.2852 E_bond   =    158186.8132 E_angle  =    693554.5004 
E_dihed  =    335326.7334 E_impro  =     14537.1691 E_vdwl   =   -127519.1967 
E_coul   =  20958737.5772 E_long   = -25030207.8818 Press    =       234.7957 
Volume   =  19713990.8243 
---------------- Step      100 ----- CPU =     43.9658 (sec) ----------------
TotEng   =  -1618398.7187 KinEng   =   1381890.7495 Temp     =       301.0802 
PotEng   =  -3000289.4682 E_bond   =    164344.0263 E_angle  =    690028.9015 
E_dihed  =    332708.7828 E_impro  =     13873.8546 E_vdwl   =   -121618.1474 
E_coul   =  20950243.8881 E_long   = -25029870.7740 Press    =        12.2362 
Volume   =  19720480.4248 
Loop time of 43.9659 on 32 procs for 100 steps with 2048000 atoms

Performance: 0.393 ns/day, 61.064 hours/ns, 2.274 timesteps/s
95.4% CPU use with 32 MPI tasks x 1 OpenMP threads

MPI task timing breakdown:
Section |  min time  |  avg time  |  max time  |%varavg| %total
---------------------------------------------------------------
Pair    | 8.9375     | 9.0637     | 9.2346     |   1.6 | 20.62
Bond    | 0.57594    | 0.58623    | 0.5944     |   0.6 |  1.33
Kspace  | 22.471     | 22.637     | 22.771     |   1.0 | 51.49
Neigh   | 1.1148     | 1.1173     | 1.1193     |   0.1 |  2.54
Comm    | 0.68219    | 0.97551    | 1.0835     |  11.3 |  2.22
Output  | 0.00042469 | 0.00046164 | 0.00053225 |   0.0 |  0.00
Modify  | 8.9409     | 9.1333     | 9.7835     |   8.0 | 20.77
Other   |            | 0.4528     |            |       |  1.03

Nlocal:          64000 ave       64000 max       64000 min
Histogram: 32 0 0 0 0 0 0 0 0 0
Nghost:        71582.1 ave       71585 max       71581 min
Histogram: 18 0 2 0 0 4 0 6 0 2
Neighs:    2.40562e+07 ave 2.40966e+07 max 2.40144e+07 min
Histogram: 8 0 0 8 0 0 8 0 0 8

Total # of neighbors = 7.6979946e+08
Ave neighs/atom = 375.87864
Ave special neighs/atom = 7.431875
Neighbor list builds = 11
Dangerous builds = 0
Total wall time: 0:00:45
Intel(R) VTune(TM) Profiler 2022.2.0 collection completed successfully. Use the "aps --report /home/ubuntu/lammps/bench/aps_result_20220601" command to generate textual and HTML reports for the profiling session.
