LAMMPS (7 Jan 2022)
  using 1 OpenMP thread(s) per MPI task
Reading data file ...
  orthogonal box = (-27.5 -38.5 -36.3646) to (27.5 38.5 36.3615)
  1 by 2 by 2 MPI processor grid
  reading atoms ...
  32000 atoms
  reading velocities ...
  32000 velocities
  scanning bonds ...
  4 = max bonds/atom
  scanning angles ...
  8 = max angles/atom
  scanning dihedrals ...
  18 = max dihedrals/atom
  scanning impropers ...
  2 = max impropers/atom
  reading bonds ...
  27723 bonds
  reading angles ...
  40467 angles
  reading dihedrals ...
  56829 dihedrals
  reading impropers ...
  1034 impropers
Finding 1-2 1-3 1-4 neighbors ...
  special bond factors lj:    0        0        0       
  special bond factors coul:  0        0        0       
     4 = max # of 1-2 neighbors
    12 = max # of 1-3 neighbors
    24 = max # of 1-4 neighbors
    26 = max # of special neighbors
  special bonds CPU = 0.006 seconds
  read_data CPU = 0.213 seconds
Replicating atoms ...
  orthogonal box = (-27.5 -38.5 -36.3646) to (192.5 269.5 254.5398)
  1 by 2 by 2 MPI processor grid
  2048000 atoms
  1774272 bonds
  2589888 angles
  3637056 dihedrals
  66176 impropers
Finding 1-2 1-3 1-4 neighbors ...
  special bond factors lj:    0        0        0       
  special bond factors coul:  0        0        0       
     4 = max # of 1-2 neighbors
    12 = max # of 1-3 neighbors
    24 = max # of 1-4 neighbors
    26 = max # of special neighbors
  special bonds CPU = 0.352 seconds
  replicate CPU = 0.602 seconds
Finding SHAKE clusters ...
  103488 = # of size 2 clusters
  232512 = # of size 3 clusters
   47808 = # of size 4 clusters
  270912 = # of frozen angles
  find clusters CPU = 0.158 seconds
PPPM initialization ...
  using 12-bit tables for long-range coulomb (../kspace.cpp:340)
  G vector (1/distance) = 0.32786357
  grid = 192 240 240
  stencil order = 7
  estimated absolute RMS force accuracy = 0.00036845542
  estimated relative force accuracy = 1.1095925e-06
  using single precision MKL FFT
  3d grid and FFT values/proc = 3344841 2764800
----------------------------------------------------------
Using INTEL Package without Coprocessor.
Compiler: Intel Classic C++ 20.21.5 / Intel(R) C++ g++ 9.3 mode
SIMD compiler directives: Enabled
Precision: mixed
----------------------------------------------------------
  generated 2278 of 2278 mixed pair_coeff terms from arithmetic mixing rule
Neighbor list info ...
  update every 1 steps, delay 5 steps, check yes
  max neighbors/atom: 2000, page size: 100000
  master list distance cutoff = 12
  ghost atom cutoff = 12
  binsize = 6, bins = 37 52 49
  1 neighbor lists, perpetual/occasional/extra = 1 0 0
  (1) pair lj/charmm/coul/long/intel, perpetual
      attributes: half, newton on, intel
      pair build: half/bin/newton/intel
      stencil: half/bin/3d
      bin: intel
Setting up Verlet run ...
  Unit style    : real
  Current step  : 0
  Time step     : 2
Per MPI rank memory allocation (min/avg/max) = 5499 | 5499 | 5499 Mbytes
---------------- Step        0 ----- CPU =      0.0000 (sec) ----------------
TotEng   =  -1622986.4947 KinEng   =   1372469.2022 Temp     =       299.0274 
PotEng   =  -2995455.6969 E_bond   =    162431.7410 E_angle  =    698967.9457 
E_dihed  =    333554.2808 E_impro  =     13664.8915 E_vdwl   =   -147703.2770 
E_coul   =  18710524.3705 E_long   = -22766895.6495 Press    =      -152.9370 
Volume   =  19711682.1440 
---------------- Step       50 ----- CPU =     78.6370 (sec) ----------------
TotEng   =  -1621304.7209 KinEng   =   1376084.8690 Temp     =       299.8152 
PotEng   =  -2997389.5899 E_bond   =    158186.6152 E_angle  =    693554.2965 
E_dihed  =    335326.8367 E_impro  =     14537.1283 E_vdwl   =   -127520.1502 
E_coul   =  18696425.2999 E_long   = -22767899.6163 Press    =       234.8207 
Volume   =  19713991.4128 
---------------- Step      100 ----- CPU =    158.2124 (sec) ----------------
TotEng   =  -1618410.8014 KinEng   =   1381871.5102 Temp     =       301.0760 
PotEng   =  -3000282.3116 E_bond   =    164343.3108 E_angle  =    690030.6682 
E_dihed  =    332708.7594 E_impro  =     13874.3587 E_vdwl   =   -121619.5411 
E_coul   =  18687885.3820 E_long   = -22767505.2496 Press    =        12.2596 
Volume   =  19720482.1404 
Loop time of 158.212 on 4 procs for 100 steps with 2048000 atoms

Performance: 0.109 ns/day, 219.739 hours/ns, 0.632 timesteps/s
98.5% CPU use with 4 MPI tasks x 1 OpenMP threads

MPI task timing breakdown:
Section |  min time  |  avg time  |  max time  |%varavg| %total
---------------------------------------------------------------
Pair    | 69.68      | 69.982     | 70.353     |   2.9 | 44.23
Bond    | 4.4146     | 4.4348     | 4.4558     |   0.8 |  2.80
Kspace  | 45.465     | 45.813     | 46.128     |   3.5 | 28.96
Neigh   | 8.2558     | 8.2579     | 8.2604     |   0.1 |  5.22
Comm    | 3.6548     | 3.6706     | 3.6909     |   0.8 |  2.32
Output  | 0.0018366  | 0.0018677  | 0.001899   |   0.1 |  0.00
Modify  | 25.666     | 25.713     | 25.759     |   0.7 | 16.25
Other   |            | 0.3388     |            |       |  0.21

Nlocal:         512000 ave      512000 max      512000 min
Histogram: 4 0 0 0 0 0 0 0 0 0
Nghost:         251408 ave      251408 max      251408 min
Histogram: 4 0 0 0 0 0 0 0 0 0
Neighs:     1.9245e+08 ave 1.92672e+08 max 1.92227e+08 min
Histogram: 2 0 0 0 0 0 0 0 0 2

Total # of neighbors = 7.6979876e+08
Ave neighs/atom = 375.8783
Ave special neighs/atom = 7.431875
Neighbor list builds = 11
Dangerous builds = 0
Total wall time: 0:02:42
Intel(R) VTune(TM) Profiler 2022.2.0 collection completed successfully. Use the "aps --report /home/ubuntu/lammps/bench/aps_result_20220530" command to generate textual and HTML reports for the profiling session.
