LAMMPS (7 Jan 2022)
  using 1 OpenMP thread(s) per MPI task
Reading data file ...
  orthogonal box = (-27.5 -38.5 -36.3646) to (27.5 38.5 36.3615)
  1 by 2 by 1 MPI processor grid
  reading atoms ...
  32000 atoms
  reading velocities ...
  32000 velocities
  scanning bonds ...
  4 = max bonds/atom
  scanning angles ...
  8 = max angles/atom
  scanning dihedrals ...
  18 = max dihedrals/atom
  scanning impropers ...
  2 = max impropers/atom
  reading bonds ...
  27723 bonds
  reading angles ...
  40467 angles
  reading dihedrals ...
  56829 dihedrals
  reading impropers ...
  1034 impropers
Finding 1-2 1-3 1-4 neighbors ...
  special bond factors lj:    0        0        0       
  special bond factors coul:  0        0        0       
     4 = max # of 1-2 neighbors
    12 = max # of 1-3 neighbors
    24 = max # of 1-4 neighbors
    26 = max # of special neighbors
  special bonds CPU = 0.013 seconds
  read_data CPU = 0.244 seconds
Replicating atoms ...
  orthogonal box = (-27.5 -38.5 -36.3646) to (82.5 115.5 109.0876)
  1 by 2 by 1 MPI processor grid
  256000 atoms
  221784 bonds
  323736 angles
  454632 dihedrals
  8272 impropers
Finding 1-2 1-3 1-4 neighbors ...
  special bond factors lj:    0        0        0       
  special bond factors coul:  0        0        0       
     4 = max # of 1-2 neighbors
    12 = max # of 1-3 neighbors
    24 = max # of 1-4 neighbors
    26 = max # of special neighbors
  special bonds CPU = 0.093 seconds
  replicate CPU = 0.170 seconds
Finding SHAKE clusters ...
   12936 = # of size 2 clusters
   29064 = # of size 3 clusters
    5976 = # of size 4 clusters
   33864 = # of frozen angles
  find clusters CPU = 0.043 seconds
PPPM initialization ...
  using 12-bit tables for long-range coulomb (../kspace.cpp:340)
  G vector (1/distance) = 0.29041716
  grid = 64 90 81
  stencil order = 7
  estimated absolute RMS force accuracy = 0.0037756649
  estimated relative force accuracy = 1.1370303e-05
  using single precision MKL FFT
  3d grid and FFT values/proc = 354780 236160
----------------------------------------------------------
Using INTEL Package without Coprocessor.
Compiler: Intel Classic C++ 20.21.5 / Intel(R) C++ g++ 9.3 mode
SIMD compiler directives: Enabled
Precision: mixed
----------------------------------------------------------
  generated 2278 of 2278 mixed pair_coeff terms from arithmetic mixing rule
Neighbor list info ...
  update every 1 steps, delay 5 steps, check yes
  max neighbors/atom: 2000, page size: 100000
  master list distance cutoff = 12
  ghost atom cutoff = 12
  binsize = 6, bins = 19 26 25
  1 neighbor lists, perpetual/occasional/extra = 1 0 0
  (1) pair lj/charmm/coul/long/intel, perpetual
      attributes: half, newton on, intel
      pair build: half/bin/newton/intel
      stencil: half/bin/3d
      bin: intel
Setting up Verlet run ...
  Unit style    : real
  Current step  : 0
  Time step     : 2
Per MPI rank memory allocation (min/avg/max) = 1395 | 1395 | 1396 Mbytes
---------------- Step        0 ----- CPU =      0.0000 (sec) ----------------
TotEng   =   -202871.9127 KinEng   =    171558.6503 Temp     =       299.0288 
PotEng   =   -374430.5630 E_bond   =     20303.9370 E_angle  =     87370.9630 
E_dihed  =     41694.2900 E_impro  =      1708.1116 E_vdwl   =    -18462.9090 
E_coul   =   2016006.1016 E_long   =  -2523051.0571 Press    =      -152.4772 
Volume   =   2463960.2680 
---------------- Step       50 ----- CPU =     14.3425 (sec) ----------------
TotEng   =   -202663.1183 KinEng   =    172009.6587 Temp     =       299.8149 
PotEng   =   -374672.7770 E_bond   =     19773.4725 E_angle  =     86694.0273 
E_dihed  =     41916.0310 E_impro  =      1817.1088 E_vdwl   =    -15941.4276 
E_coul   =   2014205.3226 E_long   =  -2523137.3115 Press    =       235.1514 
Volume   =   2464249.6695 
---------------- Step      100 ----- CPU =     28.5128 (sec) ----------------
TotEng   =   -202302.7979 KinEng   =    172718.8192 Temp     =       301.0510 
PotEng   =   -375021.6172 E_bond   =     20543.2586 E_angle  =     86253.9841 
E_dihed  =     41588.7743 E_impro  =      1734.2943 E_vdwl   =    -15204.7320 
E_coul   =   2013148.0852 E_long   =  -2523085.2817 Press    =        12.6397 
Volume   =   2465062.8882 
Loop time of 28.5128 on 2 procs for 100 steps with 256000 atoms

Performance: 0.606 ns/day, 39.601 hours/ns, 3.507 timesteps/s
99.9% CPU use with 2 MPI tasks x 1 OpenMP threads

MPI task timing breakdown:
Section |  min time  |  avg time  |  max time  |%varavg| %total
---------------------------------------------------------------
Pair    | 17.78      | 17.832     | 17.885     |   1.2 | 62.54
Bond    | 1.0475     | 1.0512     | 1.0548     |   0.4 |  3.69
Kspace  | 3.7626     | 3.8188     | 3.875      |   2.9 | 13.39
Neigh   | 2.0922     | 2.0924     | 2.0925     |   0.0 |  7.34
Comm    | 0.62924    | 0.63796    | 0.64668    |   1.1 |  2.24
Output  | 0.00046716 | 0.00050478 | 0.00054239 |   0.0 |  0.00
Modify  | 2.9805     | 3.0004     | 3.0203     |   1.1 | 10.52
Other   |            | 0.0792     |            |       |  0.28

Nlocal:         128000 ave      128000 max      128000 min
Histogram: 2 0 0 0 0 0 0 0 0 0
Nghost:         109916 ave      109916 max      109916 min
Histogram: 2 0 0 0 0 0 0 0 0 0
Neighs:    4.81121e+07 ave 4.82281e+07 max 4.79961e+07 min
Histogram: 1 0 0 0 0 0 0 0 0 1

Total # of neighbors = 96224194
Ave neighs/atom = 375.87576
Ave special neighs/atom = 7.431875
Neighbor list builds = 11
Dangerous builds = 0
Total wall time: 0:00:30
Intel(R) VTune(TM) Profiler 2022.2.0 collection completed successfully. Use the "aps --report /home/ubuntu/lammps/bench/aps_result_20220530" command to generate textual and HTML reports for the profiling session.
