LAMMPS (7 Jan 2022)
  using 1 OpenMP thread(s) per MPI task
Reading data file ...
  orthogonal box = (-27.5 -38.5 -36.3646) to (27.5 38.5 36.3615)
  2 by 2 by 2 MPI processor grid
  reading atoms ...
  32000 atoms
  reading velocities ...
  32000 velocities
  scanning bonds ...
  4 = max bonds/atom
  scanning angles ...
  8 = max angles/atom
  scanning dihedrals ...
  18 = max dihedrals/atom
  scanning impropers ...
  2 = max impropers/atom
  reading bonds ...
  27723 bonds
  reading angles ...
  40467 angles
  reading dihedrals ...
  56829 dihedrals
  reading impropers ...
  1034 impropers
Finding 1-2 1-3 1-4 neighbors ...
  special bond factors lj:    0        0        0       
  special bond factors coul:  0        0        0       
     4 = max # of 1-2 neighbors
    12 = max # of 1-3 neighbors
    24 = max # of 1-4 neighbors
    26 = max # of special neighbors
  special bonds CPU = 0.004 seconds
  read_data CPU = 0.233 seconds
Replicating atoms ...
  orthogonal box = (-27.5 -38.5 -36.3646) to (137.5 192.5 181.8137)
  2 by 2 by 2 MPI processor grid
  864000 atoms
  748521 bonds
  1092609 angles
  1534383 dihedrals
  27918 impropers
Finding 1-2 1-3 1-4 neighbors ...
  special bond factors lj:    0        0        0       
  special bond factors coul:  0        0        0       
     4 = max # of 1-2 neighbors
    12 = max # of 1-3 neighbors
    24 = max # of 1-4 neighbors
    26 = max # of special neighbors
  special bonds CPU = 0.094 seconds
  replicate CPU = 0.192 seconds
Finding SHAKE clusters ...
   43659 = # of size 2 clusters
   98091 = # of size 3 clusters
   20169 = # of size 4 clusters
  114291 = # of frozen angles
  find clusters CPU = 0.038 seconds
PPPM initialization ...
  using 12-bit tables for long-range coulomb (../kspace.cpp:340)
  G vector (1/distance) = 0.25235202
  grid = 72 90 90
  stencil order = 7
  estimated absolute RMS force accuracy = 0.029803316
  estimated relative force accuracy = 8.9751802e-05
  using single precision MKL FFT
  3d grid and FFT values/proc = 116272 77760
----------------------------------------------------------
Using INTEL Package without Coprocessor.
Compiler: Intel Classic C++ 20.21.5 / Intel(R) C++ g++ 9.3 mode
SIMD compiler directives: Enabled
Precision: mixed
----------------------------------------------------------
  generated 2278 of 2278 mixed pair_coeff terms from arithmetic mixing rule
Neighbor list info ...
  update every 1 steps, delay 5 steps, check yes
  max neighbors/atom: 2000, page size: 100000
  master list distance cutoff = 12
  ghost atom cutoff = 12
  binsize = 6, bins = 28 39 37
  1 neighbor lists, perpetual/occasional/extra = 1 0 0
  (1) pair lj/charmm/coul/long/intel, perpetual
      attributes: half, newton on, intel
      pair build: half/bin/newton/intel
      stencil: half/bin/3d
      bin: intel
Setting up Verlet run ...
  Unit style    : real
  Current step  : 0
  Time step     : 2
Per MPI rank memory allocation (min/avg/max) = 1167 | 1171 | 1175 Mbytes
---------------- Step        0 ----- CPU =      0.0000 (sec) ----------------
TotEng   =   -684670.9760 KinEng   =    579010.4447 Temp     =       299.0277 
PotEng   =  -1263681.4207 E_bond   =     68525.6859 E_angle  =    294877.1223 
E_dihed  =    140718.2350 E_impro  =      5764.8965 E_vdwl   =    -62312.3838 
E_coul   =   5692538.4978 E_long   =  -7403793.4743 Press    =      -148.6879 
Volume   =   8315865.9045 
---------------- Step       50 ----- CPU =     11.7022 (sec) ----------------
TotEng   =   -683945.5723 KinEng   =    580526.1612 Temp     =       299.8105 
PotEng   =  -1264471.7335 E_bond   =     66737.4335 E_angle  =    292591.4590 
E_dihed  =    141470.6490 E_impro  =      6132.4364 E_vdwl   =    -53811.2274 
E_coul   =   5686392.7204 E_long   =  -7403985.2044 Press    =       238.9220 
Volume   =   8316862.5496 
---------------- Step      100 ----- CPU =     23.2374 (sec) ----------------
TotEng   =   -682828.1491 KinEng   =    582915.2394 Temp     =       301.0443 
PotEng   =  -1265743.3885 E_bond   =     69335.4081 E_angle  =    291121.1936 
E_dihed  =    140366.2363 E_impro  =      5852.7910 E_vdwl   =    -51271.2373 
E_coul   =   5682697.0413 E_long   =  -7403844.8216 Press    =        14.5835 
Volume   =   8319656.0551 
---------------- Step      150 ----- CPU =     34.7525 (sec) ----------------
TotEng   =   -681934.4344 KinEng   =    581470.8653 Temp     =       300.2984 
PotEng   =  -1263405.2997 E_bond   =     69034.4371 E_angle  =    293076.8766 
E_dihed  =    142143.1519 E_impro  =      5481.5503 E_vdwl   =    -56003.7980 
E_coul   =   5686435.4671 E_long   =  -7403572.9846 Press    =       244.1860 
Volume   =   8330011.8305 
---------------- Step      200 ----- CPU =     46.2457 (sec) ----------------
TotEng   =   -677044.9521 KinEng   =    581663.8055 Temp     =       300.3980 
PotEng   =  -1258708.7576 E_bond   =     67217.1666 E_angle  =    299059.5796 
E_dihed  =    140985.5070 E_impro  =      6276.3217 E_vdwl   =    -58007.8669 
E_coul   =   5689304.7784 E_long   =  -7403544.2441 Press    =        40.8295 
Volume   =   8343000.0555 
---------------- Step      250 ----- CPU =     57.5199 (sec) ----------------
TotEng   =   -673903.9054 KinEng   =    581420.7758 Temp     =       300.2725 
PotEng   =  -1255324.6812 E_bond   =     68622.5143 E_angle  =    299579.8796 
E_dihed  =    141627.6675 E_impro  =      5762.6394 E_vdwl   =    -58459.6019 
E_coul   =   5691555.2470 E_long   =  -7404013.0271 Press    =      -156.3956 
Volume   =   8353620.0533 
---------------- Step      300 ----- CPU =     69.0069 (sec) ----------------
TotEng   =   -675760.5804 KinEng   =    581038.0725 Temp     =       300.0749 
PotEng   =  -1256798.6529 E_bond   =     69141.6883 E_angle  =    294990.4978 
E_dihed  =    140987.6332 E_impro  =      6060.7660 E_vdwl   =    -58711.6104 
E_coul   =   5694355.6571 E_long   =  -7403623.2848 Press    =      -386.8636 
Volume   =   8362039.6401 
---------------- Step      350 ----- CPU =     80.2513 (sec) ----------------
TotEng   =   -678691.4727 KinEng   =    583060.5112 Temp     =       301.1193 
PotEng   =  -1261751.9840 E_bond   =     69682.8552 E_angle  =    295874.4976 
E_dihed  =    141869.5964 E_impro  =      5642.1742 E_vdwl   =    -55473.1569 
E_coul   =   5684625.5597 E_long   =  -7403973.5100 Press    =      -330.5582 
Volume   =   8365847.4016 
---------------- Step      400 ----- CPU =     91.9365 (sec) ----------------
TotEng   =   -682580.3006 KinEng   =    578593.4600 Temp     =       298.8124 
PotEng   =  -1261173.7606 E_bond   =     68689.4101 E_angle  =    295017.7679 
E_dihed  =    140861.0303 E_impro  =      5797.2825 E_vdwl   =    -53714.7550 
E_coul   =   5685880.5283 E_long   =  -7403705.0246 Press    =       263.9424 
Volume   =   8366821.5595 
---------------- Step      450 ----- CPU =    103.6037 (sec) ----------------
TotEng   =   -684390.2314 KinEng   =    578882.2397 Temp     =       298.9615 
PotEng   =  -1263272.4711 E_bond   =     67221.8303 E_angle  =    294336.1043 
E_dihed  =    142293.4311 E_impro  =      6045.0320 E_vdwl   =    -60039.2861 
E_coul   =   5690626.5397 E_long   =  -7403756.1223 Press    =       157.8887 
Volume   =   8368589.7733 
---------------- Step      500 ----- CPU =    115.0557 (sec) ----------------
TotEng   =   -678560.2747 KinEng   =    580877.7187 Temp     =       299.9921 
PotEng   =  -1259437.9934 E_bond   =     69893.5184 E_angle  =    294751.8284 
E_dihed  =    141488.8693 E_impro  =      5878.4758 E_vdwl   =    -58813.8938 
E_coul   =   5690840.8191 E_long   =  -7403477.6107 Press    =      -217.8715 
Volume   =   8369300.0912 
---------------- Step      550 ----- CPU =    126.7552 (sec) ----------------
TotEng   =   -671837.5312 KinEng   =    584513.6000 Temp     =       301.8698 
PotEng   =  -1256351.1312 E_bond   =     68844.3873 E_angle  =    296778.2577 
E_dihed  =    140433.0677 E_impro  =      6450.0234 E_vdwl   =    -57025.0501 
E_coul   =   5691912.8542 E_long   =  -7403744.6714 Press    =       361.9054 
Volume   =   8369394.8253 
---------------- Step      600 ----- CPU =    138.2228 (sec) ----------------
TotEng   =   -670135.5396 KinEng   =    585398.3062 Temp     =       302.3267 
PotEng   =  -1255533.8458 E_bond   =     67939.2751 E_angle  =    297808.0116 
E_dihed  =    142089.6113 E_impro  =      6087.9059 E_vdwl   =    -59231.8709 
E_coul   =   5693428.3315 E_long   =  -7403655.1103 Press    =        97.4973 
Volume   =   8372315.6152 
---------------- Step      650 ----- CPU =    149.8995 (sec) ----------------
TotEng   =   -675090.1354 KinEng   =    582387.5894 Temp     =       300.7718 
PotEng   =  -1257477.7248 E_bond   =     68386.9806 E_angle  =    293678.4635 
E_dihed  =    141495.0002 E_impro  =      5702.9309 E_vdwl   =    -57274.7696 
E_coul   =   5694251.2716 E_long   =  -7403717.6021 Press    =      -180.0156 
Volume   =   8375363.4473 
---------------- Step      700 ----- CPU =    161.3666 (sec) ----------------
TotEng   =   -679519.5179 KinEng   =    580254.6981 Temp     =       299.6703 
PotEng   =  -1259774.2161 E_bond   =     67005.5583 E_angle  =    296518.1797 
E_dihed  =    141389.2694 E_impro  =      5703.1772 E_vdwl   =    -60235.2055 
E_coul   =   5693618.5308 E_long   =  -7403773.7261 Press    =       137.0097 
Volume   =   8376668.1852 
---------------- Step      750 ----- CPU =    173.0536 (sec) ----------------
TotEng   =   -679651.9388 KinEng   =    577871.1295 Temp     =       298.4393 
PotEng   =  -1257523.0683 E_bond   =     69003.2258 E_angle  =    297475.0138 
E_dihed  =    142142.4435 E_impro  =      5745.8473 E_vdwl   =    -58897.4011 
E_coul   =   5690896.9746 E_long   =  -7403889.1722 Press    =       -21.5305 
Volume   =   8374445.1835 
---------------- Step      800 ----- CPU =    184.5309 (sec) ----------------
TotEng   =   -676529.7823 KinEng   =    580080.1150 Temp     =       299.5801 
PotEng   =  -1256609.8973 E_bond   =     67928.2753 E_angle  =    298920.2799 
E_dihed  =    142304.6789 E_impro  =      6057.5477 E_vdwl   =    -57536.9979 
E_coul   =   5689292.6695 E_long   =  -7403576.3506 Press    =       -32.5340 
Volume   =   8371761.9117 
---------------- Step      850 ----- CPU =    196.2420 (sec) ----------------
TotEng   =   -673312.9955 KinEng   =    582055.6648 Temp     =       300.6004 
PotEng   =  -1255368.6603 E_bond   =     68642.1711 E_angle  =    297660.4085 
E_dihed  =    141608.8674 E_impro  =      5863.3585 E_vdwl   =    -55535.5238 
E_coul   =   5690085.7071 E_long   =  -7403693.6492 Press    =       347.2793 
Volume   =   8366023.6012 
---------------- Step      900 ----- CPU =    207.9573 (sec) ----------------
TotEng   =   -673154.8693 KinEng   =    582280.9185 Temp     =       300.7167 
PotEng   =  -1255435.7878 E_bond   =     68160.9962 E_angle  =    296830.2705 
E_dihed  =    142335.2100 E_impro  =      6202.6593 E_vdwl   =    -54194.7211 
E_coul   =   5688934.6889 E_long   =  -7403704.8915 Press    =       278.7432 
Volume   =   8361963.7487 
---------------- Step      950 ----- CPU =    219.4500 (sec) ----------------
TotEng   =   -676173.8455 KinEng   =    580359.5730 Temp     =       299.7245 
PotEng   =  -1256533.4186 E_bond   =     68843.9042 E_angle  =    297746.3995 
E_dihed  =    142864.0252 E_impro  =      6368.6898 E_vdwl   =    -57706.1502 
E_coul   =   5688994.0761 E_long   =  -7403644.3633 Press    =       -97.2491 
Volume   =   8361463.6952 
---------------- Step     1000 ----- CPU =    230.9272 (sec) ----------------
TotEng   =   -679465.9181 KinEng   =    579029.5335 Temp     =       299.0376 
PotEng   =  -1258495.4516 E_bond   =     69709.6310 E_angle  =    296388.3831 
E_dihed  =    141512.7838 E_impro  =      5859.0940 E_vdwl   =    -57243.3577 
E_coul   =   5689006.0252 E_long   =  -7403728.0110 Press    =      -127.9244 
Volume   =   8361363.0903 
---------------- Step     1050 ----- CPU =    242.4112 (sec) ----------------
TotEng   =   -679971.4708 KinEng   =    578396.5378 Temp     =       298.7107 
PotEng   =  -1258368.0086 E_bond   =     68728.7385 E_angle  =    297059.5753 
E_dihed  =    141885.0077 E_impro  =      5971.1461 E_vdwl   =    -57085.7557 
E_coul   =   5688765.9504 E_long   =  -7403692.6709 Press    =       -89.4314 
Volume   =   8361159.0102 
---------------- Step     1100 ----- CPU =    254.1167 (sec) ----------------
TotEng   =   -677439.5013 KinEng   =    580524.3978 Temp     =       299.8096 
PotEng   =  -1257963.8992 E_bond   =     69745.6296 E_angle  =    296278.5423 
E_dihed  =    142688.6362 E_impro  =      6290.5544 E_vdwl   =    -58065.0115 
E_coul   =   5688935.4101 E_long   =  -7403837.6603 Press    =      -126.8658 
Volume   =   8359942.3298 
---------------- Step     1150 ----- CPU =    265.6114 (sec) ----------------
TotEng   =   -674475.5938 KinEng   =    582603.6141 Temp     =       300.8834 
PotEng   =  -1257079.2079 E_bond   =     68568.0454 E_angle  =    297151.1054 
E_dihed  =    142268.2418 E_impro  =      5961.4914 E_vdwl   =    -56518.6499 
E_coul   =   5689170.0187 E_long   =  -7403679.4606 Press    =       201.9043 
Volume   =   8357208.8205 
---------------- Step     1200 ----- CPU =    277.3261 (sec) ----------------
TotEng   =   -674006.6950 KinEng   =    581905.4132 Temp     =       300.5228 
PotEng   =  -1255912.1081 E_bond   =     69753.4416 E_angle  =    296754.8487 
E_dihed  =    142467.3987 E_impro  =      6019.1392 E_vdwl   =    -57258.6874 
E_coul   =   5690109.9253 E_long   =  -7403758.1742 Press    =       -48.1241 
Volume   =   8355173.7186 
---------------- Step     1250 ----- CPU =    288.8195 (sec) ----------------
TotEng   =   -676191.9712 KinEng   =    581149.2802 Temp     =       300.1323 
PotEng   =  -1257341.2515 E_bond   =     69037.9602 E_angle  =    296579.9083 
E_dihed  =    142257.1843 E_impro  =      6059.2833 E_vdwl   =    -57517.7501 
E_coul   =   5689998.9298 E_long   =  -7403756.7673 Press    =       125.9900 
Volume   =   8354214.8071 
---------------- Step     1300 ----- CPU =    300.3207 (sec) ----------------
TotEng   =   -678559.9441 KinEng   =    580519.3952 Temp     =       299.8070 
PotEng   =  -1259079.3392 E_bond   =     69924.0832 E_angle  =    296137.4417 
E_dihed  =    142308.4507 E_impro  =      6053.2628 E_vdwl   =    -58624.3136 
E_coul   =   5688822.2943 E_long   =  -7403700.5583 Press    =      -258.5937 
Volume   =   8354056.7587 
---------------- Step     1350 ----- CPU =    311.8180 (sec) ----------------
TotEng   =   -679444.9724 KinEng   =    578812.3011 Temp     =       298.9254 
PotEng   =  -1258257.2735 E_bond   =     69467.1788 E_angle  =    296488.6129 
E_dihed  =    142407.2697 E_impro  =      6038.2349 E_vdwl   =    -56468.1649 
E_coul   =   5687505.8942 E_long   =  -7403696.2992 Press    =       -88.6975 
Volume   =   8353560.2738 
---------------- Step     1400 ----- CPU =    323.5291 (sec) ----------------
TotEng   =   -678668.7960 KinEng   =    580334.9867 Temp     =       299.7118 
PotEng   =  -1259003.7827 E_bond   =     69379.7169 E_angle  =    297173.9389 
E_dihed  =    142325.6547 E_impro  =      5981.7812 E_vdwl   =    -57858.6037 
E_coul   =   5687708.7235 E_long   =  -7403714.9942 Press    =       -20.2005 
Volume   =   8353167.5768 
---------------- Step     1450 ----- CPU =    335.0200 (sec) ----------------
TotEng   =   -677072.1724 KinEng   =    580823.1773 Temp     =       299.9639 
PotEng   =  -1257895.3498 E_bond   =     69352.8772 E_angle  =    296928.3363 
E_dihed  =    142235.8521 E_impro  =      5859.0708 E_vdwl   =    -57072.1324 
E_coul   =   5688569.6481 E_long   =  -7403769.0018 Press    =        -7.1204 
Volume   =   8352382.6297 
---------------- Step     1500 ----- CPU =    346.5249 (sec) ----------------
TotEng   =   -676249.9598 KinEng   =    582031.3247 Temp     =       300.5878 
PotEng   =  -1258281.2845 E_bond   =     69057.8554 E_angle  =    296712.8247 
E_dihed  =    142197.5586 E_impro  =      6012.3613 E_vdwl   =    -56365.2131 
E_coul   =   5687822.8533 E_long   =  -7403719.5247 Press    =       118.6739 
Volume   =   8352849.8865 
---------------- Step     1550 ----- CPU =    358.2540 (sec) ----------------
TotEng   =   -676531.8311 KinEng   =    580861.6313 Temp     =       299.9837 
PotEng   =  -1257393.4623 E_bond   =     69329.3863 E_angle  =    297676.3352 
E_dihed  =    142012.9797 E_impro  =      5978.8137 E_vdwl   =    -57413.9855 
E_coul   =   5688789.0462 E_long   =  -7403766.0380 Press    =       -46.0989 
Volume   =   8354921.8010 
---------------- Step     1600 ----- CPU =    369.7502 (sec) ----------------
TotEng   =   -677589.4600 KinEng   =    581100.3796 Temp     =       300.1070 
PotEng   =  -1258689.8396 E_bond   =     68945.8267 E_angle  =    296642.0119 
E_dihed  =    141931.5244 E_impro  =      5874.4602 E_vdwl   =    -57163.5758 
E_coul   =   5688801.3291 E_long   =  -7403721.4161 Press    =        54.5371 
Volume   =   8357674.2865 
---------------- Step     1650 ----- CPU =    381.4662 (sec) ----------------
TotEng   =   -678219.8340 KinEng   =    579585.7784 Temp     =       299.3248 
PotEng   =  -1257805.6124 E_bond   =     69490.9007 E_angle  =    296931.3601 
E_dihed  =    141849.6410 E_impro  =      5954.6853 E_vdwl   =    -56710.7087 
E_coul   =   5688412.6955 E_long   =  -7403734.1862 Press    =       -40.7800 
Volume   =   8359233.5762 
---------------- Step     1700 ----- CPU =    392.9658 (sec) ----------------
TotEng   =   -677939.9820 KinEng   =    581043.8895 Temp     =       300.0779 
PotEng   =  -1258983.8715 E_bond   =     68993.9859 E_angle  =    297470.0500 
E_dihed  =    141815.2836 E_impro  =      6057.3988 E_vdwl   =    -56288.6153 
E_coul   =   5686719.7186 E_long   =  -7403751.6931 Press    =        22.8912 
Volume   =   8360307.1736 
---------------- Step     1750 ----- CPU =    404.6887 (sec) ----------------
TotEng   =   -677520.4551 KinEng   =    580845.0113 Temp     =       299.9752 
PotEng   =  -1258365.4665 E_bond   =     69168.9288 E_angle  =    297702.1653 
E_dihed  =    141804.7327 E_impro  =      6014.0238 E_vdwl   =    -56776.3058 
E_coul   =   5687485.3570 E_long   =  -7403764.3683 Press    =        21.5778 
Volume   =   8361193.1650 
---------------- Step     1800 ----- CPU =    416.1901 (sec) ----------------
TotEng   =   -676896.2385 KinEng   =    579748.6994 Temp     =       299.4090 
PotEng   =  -1256644.9379 E_bond   =     69321.6579 E_angle  =    297312.7436 
E_dihed  =    141922.7210 E_impro  =      6091.2055 E_vdwl   =    -56816.1374 
E_coul   =   5689245.3093 E_long   =  -7403722.4378 Press    =       -71.4219 
Volume   =   8361700.9364 
---------------- Step     1850 ----- CPU =    427.6804 (sec) ----------------
TotEng   =   -675653.5039 KinEng   =    581217.2574 Temp     =       300.1674 
PotEng   =  -1256870.7613 E_bond   =     69423.9002 E_angle  =    297639.2505 
E_dihed  =    142067.2191 E_impro  =      5882.0432 E_vdwl   =    -57766.2476 
E_coul   =   5689612.1080 E_long   =  -7403729.0346 Press    =         1.7045 
Volume   =   8361620.9204 
---------------- Step     1900 ----- CPU =    439.3847 (sec) ----------------
TotEng   =   -675144.3562 KinEng   =    581473.6875 Temp     =       300.2998 
PotEng   =  -1256618.0437 E_bond   =     69361.2758 E_angle  =    297759.7521 
E_dihed  =    141669.8242 E_impro  =      6110.6154 E_vdwl   =    -55771.3128 
E_coul   =   5688006.1721 E_long   =  -7403754.3705 Press    =       -16.7645 
Volume   =   8360613.0387 
---------------- Step     1950 ----- CPU =    450.8851 (sec) ----------------
TotEng   =   -676080.1676 KinEng   =    580850.6771 Temp     =       299.9781 
PotEng   =  -1256930.8446 E_bond   =     69438.2086 E_angle  =    298217.0071 
E_dihed  =    141848.9373 E_impro  =      5931.7093 E_vdwl   =    -55878.8955 
E_coul   =   5687247.0775 E_long   =  -7403734.8889 Press    =       -59.6504 
Volume   =   8359771.6692 
---------------- Step     2000 ----- CPU =    462.3902 (sec) ----------------
TotEng   =   -678424.7749 KinEng   =    580766.7493 Temp     =       299.9347 
PotEng   =  -1259191.5242 E_bond   =     69542.7681 E_angle  =    296859.6625 
E_dihed  =    141820.0547 E_impro  =      5918.9747 E_vdwl   =    -57484.9533 
E_coul   =   5687854.5802 E_long   =  -7403702.6111 Press    =       -92.4012 
Volume   =   8358971.7303 
---------------- Step     2050 ----- CPU =    474.0928 (sec) ----------------
TotEng   =   -680211.0995 KinEng   =    580290.2009 Temp     =       299.6886 
PotEng   =  -1260501.3004 E_bond   =     69113.0417 E_angle  =    296531.1619 
E_dihed  =    141907.0280 E_impro  =      5987.9988 E_vdwl   =    -56906.6846 
E_coul   =   5686626.3884 E_long   =  -7403760.2345 Press    =        11.8296 
Volume   =   8357922.1432 
---------------- Step     2100 ----- CPU =    485.5904 (sec) ----------------
TotEng   =   -680260.5709 KinEng   =    579601.4037 Temp     =       299.3329 
PotEng   =  -1259861.9747 E_bond   =     69349.8152 E_angle  =    296802.6271 
E_dihed  =    141936.6593 E_impro  =      5946.9360 E_vdwl   =    -56664.4116 
E_coul   =   5686445.9848 E_long   =  -7403679.5855 Press    =      -165.4244 
Volume   =   8356833.7052 
---------------- Step     2150 ----- CPU =    497.3174 (sec) ----------------
TotEng   =   -678724.0856 KinEng   =    581723.2094 Temp     =       300.4287 
PotEng   =  -1260447.2950 E_bond   =     69008.2202 E_angle  =    296829.3008 
E_dihed  =    141750.5869 E_impro  =      5980.2448 E_vdwl   =    -56082.7291 
E_coul   =   5685832.3045 E_long   =  -7403765.2230 Press    =        86.3370 
Volume   =   8355582.5508 
---------------- Step     2200 ----- CPU =    508.8157 (sec) ----------------
TotEng   =   -677299.8393 KinEng   =    581630.4280 Temp     =       300.3808 
PotEng   =  -1258930.2673 E_bond   =     69381.8318 E_angle  =    297637.5606 
E_dihed  =    142214.0428 E_impro  =      6104.2824 E_vdwl   =    -55992.4949 
E_coul   =   5685455.1515 E_long   =  -7403730.6416 Press    =       -36.3467 
Volume   =   8355043.6473 
---------------- Step     2250 ----- CPU =    520.5404 (sec) ----------------
TotEng   =   -677173.0810 KinEng   =    581743.9517 Temp     =       300.4394 
PotEng   =  -1258917.0327 E_bond   =     69454.3660 E_angle  =    297478.8599 
E_dihed  =    141798.5368 E_impro  =      5985.2610 E_vdwl   =    -56772.6006 
E_coul   =   5686940.1965 E_long   =  -7403801.6522 Press    =        10.2216 
Volume   =   8354478.2338 
---------------- Step     2300 ----- CPU =    532.0219 (sec) ----------------
TotEng   =   -678782.7445 KinEng   =    580249.4699 Temp     =       299.6676 
PotEng   =  -1259032.2143 E_bond   =     69428.5336 E_angle  =    297325.2257 
E_dihed  =    142052.6194 E_impro  =      6035.7801 E_vdwl   =    -56291.9928 
E_coul   =   5686150.5086 E_long   =  -7403732.8889 Press    =      -138.3418 
Volume   =   8353667.6921 
---------------- Step     2350 ----- CPU =    543.7400 (sec) ----------------
TotEng   =   -679954.7411 KinEng   =    579161.6501 Temp     =       299.1058 
PotEng   =  -1259116.3911 E_bond   =     69078.2566 E_angle  =    297350.3496 
E_dihed  =    142018.2043 E_impro  =      6078.0696 E_vdwl   =    -56577.4713 
E_coul   =   5686626.9841 E_long   =  -7403690.7842 Press    =       -71.9137 
Volume   =   8352846.0197 
---------------- Step     2400 ----- CPU =    555.2408 (sec) ----------------
TotEng   =   -679301.8236 KinEng   =    580246.7054 Temp     =       299.6662 
PotEng   =  -1259548.5290 E_bond   =     69359.5317 E_angle  =    297349.5899 
E_dihed  =    141934.5819 E_impro  =      5980.5398 E_vdwl   =    -57181.7882 
E_coul   =   5686791.6093 E_long   =  -7403782.5935 Press    =       -86.4722 
Volume   =   8352152.4150 
---------------- Step     2450 ----- CPU =    566.7390 (sec) ----------------
TotEng   =   -677987.1334 KinEng   =    581306.7549 Temp     =       300.2136 
PotEng   =  -1259293.8883 E_bond   =     69113.2657 E_angle  =    297564.6816 
E_dihed  =    141845.1071 E_impro  =      6095.7864 E_vdwl   =    -56150.6234 
E_coul   =   5686055.7318 E_long   =  -7403817.8375 Press    =        29.8529 
Volume   =   8351235.8519 
---------------- Step     2500 ----- CPU =    578.4662 (sec) ----------------
TotEng   =   -677481.8330 KinEng   =    582018.1659 Temp     =       300.5810 
PotEng   =  -1259499.9989 E_bond   =     69313.6462 E_angle  =    297383.6001 
E_dihed  =    142069.6313 E_impro  =      6135.5053 E_vdwl   =    -56605.9610 
E_coul   =   5685982.1350 E_long   =  -7403778.5557 Press    =       -42.5834 
Volume   =   8350864.9011 
---------------- Step     2550 ----- CPU =    589.9637 (sec) ----------------
TotEng   =   -678435.6997 KinEng   =    581640.7444 Temp     =       300.3861 
PotEng   =  -1260076.4441 E_bond   =     69214.6182 E_angle  =    297680.1993 
E_dihed  =    141760.4521 E_impro  =      5994.7012 E_vdwl   =    -56538.7494 
E_coul   =   5685564.3378 E_long   =  -7403752.0032 Press    =        -5.3960 
Volume   =   8350790.4200 
---------------- Step     2600 ----- CPU =    601.6756 (sec) ----------------
TotEng   =   -679862.5265 KinEng   =    580827.8352 Temp     =       299.9663 
PotEng   =  -1260690.3617 E_bond   =     69163.9299 E_angle  =    296856.3973 
E_dihed  =    141814.1644 E_impro  =      6058.0132 E_vdwl   =    -56975.7495 
E_coul   =   5686160.7816 E_long   =  -7403767.8985 Press    =       -63.5546 
Volume   =   8350488.4677 
---------------- Step     2650 ----- CPU =    613.1735 (sec) ----------------
TotEng   =   -679889.3400 KinEng   =    580346.3457 Temp     =       299.7176 
PotEng   =  -1260235.6858 E_bond   =     69187.4713 E_angle  =    297400.5889 
E_dihed  =    142194.8696 E_impro  =      6037.7651 E_vdwl   =    -56631.8723 
E_coul   =   5685311.5568 E_long   =  -7403736.0652 Press    =       -57.7365 
Volume   =   8350690.6977 
---------------- Step     2700 ----- CPU =    624.8870 (sec) ----------------
TotEng   =   -678823.4004 KinEng   =    581143.1979 Temp     =       300.1292 
PotEng   =  -1259966.5983 E_bond   =     69564.1568 E_angle  =    297527.1887 
E_dihed  =    142129.7904 E_impro  =      5967.8094 E_vdwl   =    -55949.7830 
E_coul   =   5684674.8604 E_long   =  -7403880.6209 Press    =       -30.0242 
Volume   =   8350723.3148 
---------------- Step     2750 ----- CPU =    636.6132 (sec) ----------------
TotEng   =   -677865.8508 KinEng   =    582070.0557 Temp     =       300.6078 
PotEng   =  -1259935.9065 E_bond   =     69447.3262 E_angle  =    297576.3650 
E_dihed  =    142209.5316 E_impro  =      6017.7986 E_vdwl   =    -56960.0623 
E_coul   =   5685454.1442 E_long   =  -7403681.0098 Press    =       -25.9189 
Volume   =   8350932.8019 
---------------- Step     2800 ----- CPU =    648.0925 (sec) ----------------
TotEng   =   -678018.5106 KinEng   =    581595.3876 Temp     =       300.3627 
PotEng   =  -1259613.8982 E_bond   =     69003.2192 E_angle  =    298049.4162 
E_dihed  =    142034.8860 E_impro  =      5994.1560 E_vdwl   =    -55766.1593 
E_coul   =   5684905.3951 E_long   =  -7403834.8113 Press    =       110.7964 
Volume   =   8351220.8596 
---------------- Step     2850 ----- CPU =    659.5776 (sec) ----------------
TotEng   =   -679137.5633 KinEng   =    580821.9625 Temp     =       299.9633 
PotEng   =  -1259959.5258 E_bond   =     69319.6363 E_angle  =    297626.0056 
E_dihed  =    142249.8431 E_impro  =      5978.1677 E_vdwl   =    -57411.7414 
E_coul   =   5685988.8092 E_long   =  -7403710.2462 Press    =      -114.9398 
Volume   =   8351270.1727 
---------------- Step     2900 ----- CPU =    671.2949 (sec) ----------------
TotEng   =   -680214.4742 KinEng   =    580848.0464 Temp     =       299.9767 
PotEng   =  -1261062.5206 E_bond   =     69564.0515 E_angle  =    297039.0293 
E_dihed  =    142067.7625 E_impro  =      6036.8571 E_vdwl   =    -55783.0135 
E_coul   =   5683785.2851 E_long   =  -7403772.4928 Press    =       -21.3735 
Volume   =   8350398.4393 
---------------- Step     2950 ----- CPU =    682.7991 (sec) ----------------
TotEng   =   -680999.5208 KinEng   =    580408.1868 Temp     =       299.7496 
PotEng   =  -1261407.7075 E_bond   =     69231.6444 E_angle  =    297092.6172 
E_dihed  =    141947.9296 E_impro  =      6026.8636 E_vdwl   =    -56098.6876 
E_coul   =   5684125.3429 E_long   =  -7403733.4176 Press    =        35.3746 
Volume   =   8348875.9039 
---------------- Step     3000 ----- CPU =    694.5373 (sec) ----------------
TotEng   =   -680420.7058 KinEng   =    579972.5088 Temp     =       299.5246 
PotEng   =  -1260393.2146 E_bond   =     69320.0948 E_angle  =    297803.7919 
E_dihed  =    142289.8168 E_impro  =      5998.6633 E_vdwl   =    -55780.0581 
E_coul   =   5683828.3464 E_long   =  -7403853.8698 Press    =       -13.2122 
Volume   =   8347529.2693 
---------------- Step     3050 ----- CPU =    706.0386 (sec) ----------------
TotEng   =   -678915.4091 KinEng   =    581031.4774 Temp     =       300.0715 
PotEng   =  -1259946.8865 E_bond   =     69126.8218 E_angle  =    297601.4295 
E_dihed  =    142443.1960 E_impro  =      6150.9016 E_vdwl   =    -55002.4358 
E_coul   =   5683448.6930 E_long   =  -7403715.4926 Press    =        13.8104 
Volume   =   8346481.7561 
---------------- Step     3100 ----- CPU =    717.5303 (sec) ----------------
TotEng   =   -677631.8477 KinEng   =    581728.2477 Temp     =       300.4313 
PotEng   =  -1259360.0954 E_bond   =     69424.6919 E_angle  =    298532.1869 
E_dihed  =    142140.4289 E_impro  =      5964.7505 E_vdwl   =    -55964.5932 
E_coul   =   5684280.5661 E_long   =  -7403738.1265 Press    =        70.1000 
Volume   =   8345759.7042 
---------------- Step     3150 ----- CPU =    729.2525 (sec) ----------------
TotEng   =   -678042.2701 KinEng   =    581058.3468 Temp     =       300.0853 
PotEng   =  -1259100.6169 E_bond   =     69191.5087 E_angle  =    298234.9179 
E_dihed  =    142462.5118 E_impro  =      6030.8035 E_vdwl   =    -56329.8425 
E_coul   =   5685117.2522 E_long   =  -7403807.7686 Press    =        94.9265 
Volume   =   8345244.0951 
---------------- Step     3200 ----- CPU =    740.7632 (sec) ----------------
TotEng   =   -679889.6932 KinEng   =    581211.7533 Temp     =       300.1646 
PotEng   =  -1261101.4465 E_bond   =     69634.3283 E_angle  =    297851.6470 
E_dihed  =    141834.4183 E_impro  =      5966.9979 E_vdwl   =    -56077.7374 
E_coul   =   5683428.4990 E_long   =  -7403739.5994 Press    =       -52.1036 
Volume   =   8344891.4153 
---------------- Step     3250 ----- CPU =    752.2728 (sec) ----------------
TotEng   =   -682242.5390 KinEng   =    579605.1886 Temp     =       299.3349 
PotEng   =  -1261847.7276 E_bond   =     68879.8699 E_angle  =    297681.3224 
E_dihed  =    142250.2885 E_impro  =      6010.3014 E_vdwl   =    -56544.8673 
E_coul   =   5683734.5496 E_long   =  -7403859.1922 Press    =        71.1433 
Volume   =   8344915.9940 
---------------- Step     3300 ----- CPU =    764.0011 (sec) ----------------
TotEng   =   -682756.0868 KinEng   =    578796.4674 Temp     =       298.9172 
PotEng   =  -1261552.5541 E_bond   =     69759.8282 E_angle  =    297845.7685 
E_dihed  =    142115.6345 E_impro  =      6059.1380 E_vdwl   =    -56664.0564 
E_coul   =   5683157.3641 E_long   =  -7403826.2309 Press    =       -43.4621 
Volume   =   8345008.5576 
---------------- Step     3350 ----- CPU =    775.7142 (sec) ----------------
TotEng   =   -680989.7123 KinEng   =    580263.7047 Temp     =       299.6749 
PotEng   =  -1261253.4170 E_bond   =     69148.5126 E_angle  =    298091.1748 
E_dihed  =    141946.0680 E_impro  =      6041.9531 E_vdwl   =    -56705.6825 
E_coul   =   5684124.7210 E_long   =  -7403900.1641 Press    =        45.4946 
Volume   =   8345267.6695 
---------------- Step     3400 ----- CPU =    787.2187 (sec) ----------------
TotEng   =   -678037.9032 KinEng   =    581964.7995 Temp     =       300.5535 
PotEng   =  -1260002.7026 E_bond   =     69626.1701 E_angle  =    298054.9322 
E_dihed  =    141948.8399 E_impro  =      6061.8413 E_vdwl   =    -56179.6352 
E_coul   =   5684304.0848 E_long   =  -7403818.9357 Press    =       -51.4914 
Volume   =   8346207.8539 
---------------- Step     3450 ----- CPU =    798.9488 (sec) ----------------
TotEng   =   -676452.2518 KinEng   =    582209.4434 Temp     =       300.6798 
PotEng   =  -1258661.6952 E_bond   =     69671.8004 E_angle  =    298553.0458 
E_dihed  =    142380.1173 E_impro  =      6103.5359 E_vdwl   =    -55827.4574 
E_coul   =   5684216.9785 E_long   =  -7403759.7157 Press    =       -29.8285 
Volume   =   8346125.4693 
---------------- Step     3500 ----- CPU =    810.4458 (sec) ----------------
TotEng   =   -677569.6658 KinEng   =    581668.4565 Temp     =       300.4004 
PotEng   =  -1259238.1223 E_bond   =     69808.3355 E_angle  =    298432.7174 
E_dihed  =    142087.2647 E_impro  =      6165.2132 E_vdwl   =    -56798.5952 
E_coul   =   5684817.6227 E_long   =  -7403750.6805 Press    =       -69.2838 
Volume   =   8345560.8731 
---------------- Step     3550 ----- CPU =    822.1846 (sec) ----------------
TotEng   =   -680566.1968 KinEng   =    580213.8871 Temp     =       299.6492 
PotEng   =  -1260780.0839 E_bond   =     69648.6962 E_angle  =    297755.2172 
E_dihed  =    142448.1295 E_impro  =      6134.5871 E_vdwl   =    -56850.0445 
E_coul   =   5683854.7029 E_long   =  -7403771.3724 Press    =        32.2749 
Volume   =   8344249.7742 
---------------- Step     3600 ----- CPU =    833.6756 (sec) ----------------
TotEng   =   -682757.4414 KinEng   =    580152.0341 Temp     =       299.6173 
PotEng   =  -1262909.4755 E_bond   =     69173.0340 E_angle  =    297441.5633 
E_dihed  =    141682.8801 E_impro  =      6000.6195 E_vdwl   =    -56870.0967 
E_coul   =   5683429.0482 E_long   =  -7403766.5240 Press    =       -28.1607 
Volume   =   8343292.7940 
---------------- Step     3650 ----- CPU =    845.4179 (sec) ----------------
TotEng   =   -682302.4625 KinEng   =    579149.3424 Temp     =       299.0994 
PotEng   =  -1261451.8049 E_bond   =     69641.3140 E_angle  =    297577.0489 
E_dihed  =    142034.5086 E_impro  =      6128.6964 E_vdwl   =    -56157.7490 
E_coul   =   5683128.6782 E_long   =  -7403804.3020 Press    =       -22.6165 
Volume   =   8341868.8774 
---------------- Step     3700 ----- CPU =    856.9128 (sec) ----------------
TotEng   =   -679943.1859 KinEng   =    581745.7967 Temp     =       300.4404 
PotEng   =  -1261688.9826 E_bond   =     69622.2253 E_angle  =    298150.1012 
E_dihed  =    141863.9843 E_impro  =      6032.1716 E_vdwl   =    -55627.1873 
E_coul   =   5682063.7215 E_long   =  -7403793.9991 Press    =       -13.1000 
Volume   =   8340539.6605 
---------------- Step     3750 ----- CPU =    868.4084 (sec) ----------------
TotEng   =   -678132.3536 KinEng   =    581827.6532 Temp     =       300.4826 
PotEng   =  -1259960.0068 E_bond   =     69994.4763 E_angle  =    298746.3861 
E_dihed  =    142043.3995 E_impro  =      6032.0572 E_vdwl   =    -54964.9914 
E_coul   =   5681975.9997 E_long   =  -7403787.3340 Press    =       -78.6768 
Volume   =   8340337.2705 
---------------- Step     3800 ----- CPU =    880.1313 (sec) ----------------
TotEng   =   -678383.6345 KinEng   =    581532.1687 Temp     =       300.3300 
PotEng   =  -1259915.8032 E_bond   =     69730.3781 E_angle  =    298804.6198 
E_dihed  =    142173.6663 E_impro  =      6062.9880 E_vdwl   =    -56656.1159 
E_coul   =   5683756.8233 E_long   =  -7403788.1627 Press    =       -46.2897 
Volume   =   8341380.2450 
---------------- Step     3850 ----- CPU =    891.6372 (sec) ----------------
TotEng   =   -680354.4311 KinEng   =    580858.0720 Temp     =       299.9819 
PotEng   =  -1261212.5032 E_bond   =     69428.8133 E_angle  =    297861.4870 
E_dihed  =    142279.1139 E_impro  =      6012.0179 E_vdwl   =    -56309.4278 
E_coul   =   5683325.8382 E_long   =  -7403810.3457 Press    =        97.9934 
Volume   =   8342452.8022 
---------------- Step     3900 ----- CPU =    903.3705 (sec) ----------------
TotEng   =   -681762.2862 KinEng   =    580437.1335 Temp     =       299.7645 
PotEng   =  -1262199.4197 E_bond   =     69400.4241 E_angle  =    297620.2604 
E_dihed  =    141836.9674 E_impro  =      6134.2627 E_vdwl   =    -55427.2883 
E_coul   =   5682038.8367 E_long   =  -7403802.8827 Press    =        29.7251 
Volume   =   8343935.9751 
---------------- Step     3950 ----- CPU =    915.1082 (sec) ----------------
TotEng   =   -681903.1677 KinEng   =    580236.9195 Temp     =       299.6611 
PotEng   =  -1262140.0871 E_bond   =     69930.8817 E_angle  =    297809.3171 
E_dihed  =    141700.3356 E_impro  =      6034.3887 E_vdwl   =    -55936.1929 
E_coul   =   5682105.8034 E_long   =  -7403784.6207 Press    =      -149.3526 
Volume   =   8344843.1710 
---------------- Step     4000 ----- CPU =    926.6172 (sec) ----------------
TotEng   =   -680986.2060 KinEng   =    581428.4962 Temp     =       300.2765 
PotEng   =  -1262414.7023 E_bond   =     69676.3697 E_angle  =    298006.1416 
E_dihed  =    141884.9374 E_impro  =      6068.4818 E_vdwl   =    -55170.9416 
E_coul   =   5680893.7610 E_long   =  -7403773.4522 Press    =       -46.5161 
Volume   =   8344693.0117 
---------------- Step     4050 ----- CPU =    938.3418 (sec) ----------------
TotEng   =   -679686.7135 KinEng   =    580986.2249 Temp     =       300.0481 
PotEng   =  -1260672.9383 E_bond   =     69585.9313 E_angle  =    298347.3532 
E_dihed  =    141910.7178 E_impro  =      6192.2020 E_vdwl   =    -57167.5558 
E_coul   =   5684243.3223 E_long   =  -7403784.9090 Press    =       -74.4286 
Volume   =   8344577.7797 
---------------- Step     4100 ----- CPU =    949.8489 (sec) ----------------
TotEng   =   -678903.7320 KinEng   =    581551.4544 Temp     =       300.3400 
PotEng   =  -1260455.1864 E_bond   =     69153.5489 E_angle  =    298562.0921 
E_dihed  =    142074.0090 E_impro  =      6108.0762 E_vdwl   =    -55550.5207 
E_coul   =   5682945.6887 E_long   =  -7403748.0807 Press    =        45.3657 
Volume   =   8343570.1145 
---------------- Step     4150 ----- CPU =    961.3488 (sec) ----------------
TotEng   =   -679563.4996 KinEng   =    580631.5457 Temp     =       299.8649 
PotEng   =  -1260195.0453 E_bond   =     69638.1687 E_angle  =    298935.0486 
E_dihed  =    142104.2928 E_impro  =      6042.1108 E_vdwl   =    -55742.7502 
E_coul   =   5682602.2236 E_long   =  -7403774.1395 Press    =      -103.4476 
Volume   =   8343560.3987 
---------------- Step     4200 ----- CPU =    972.8484 (sec) ----------------
TotEng   =   -681206.0841 KinEng   =    580972.5883 Temp     =       300.0410 
PotEng   =  -1262178.6725 E_bond   =     69762.9744 E_angle  =    297963.6672 
E_dihed  =    141861.7910 E_impro  =      6000.6567 E_vdwl   =    -56363.0003 
E_coul   =   5682356.3859 E_long   =  -7403761.1473 Press    =         3.9233 
Volume   =   8342438.0659 
---------------- Step     4250 ----- CPU =    984.5903 (sec) ----------------
TotEng   =   -682613.4723 KinEng   =    579953.7573 Temp     =       299.5149 
PotEng   =  -1262567.2296 E_bond   =     69382.9106 E_angle  =    298128.4185 
E_dihed  =    141884.3029 E_impro  =      6084.2178 E_vdwl   =    -55238.4754 
E_coul   =   5681000.3995 E_long   =  -7403809.0036 Press    =        33.7206 
Volume   =   8340464.2062 
---------------- Step     4300 ----- CPU =    996.0997 (sec) ----------------
TotEng   =   -682595.9323 KinEng   =    579970.3997 Temp     =       299.5235 
PotEng   =  -1262566.3319 E_bond   =     69547.1696 E_angle  =    297991.7918 
E_dihed  =    142243.5016 E_impro  =      6018.2131 E_vdwl   =    -56016.7894 
E_coul   =   5681393.3594 E_long   =  -7403743.5781 Press    =       -88.6123 
Volume   =   8338375.5677 
---------------- Step     4350 ----- CPU =   1007.8351 (sec) ----------------
TotEng   =   -681038.1115 KinEng   =    580848.2870 Temp     =       299.9769 
PotEng   =  -1261886.3985 E_bond   =     69123.6618 E_angle  =    299052.2075 
E_dihed  =    141836.6922 E_impro  =      6035.8533 E_vdwl   =    -54805.1740 
E_coul   =   5680655.3755 E_long   =  -7403785.0148 Press    =        54.0278 
Volume   =   8335916.2183 
---------------- Step     4400 ----- CPU =   1019.3437 (sec) ----------------
TotEng   =   -679293.3047 KinEng   =    581707.2130 Temp     =       300.4204 
PotEng   =  -1261000.5178 E_bond   =     69628.2911 E_angle  =    298382.3275 
E_dihed  =    142552.8613 E_impro  =      6130.1571 E_vdwl   =    -55105.7079 
E_coul   =   5681163.4576 E_long   =  -7403751.9044 Press    =        45.1939 
Volume   =   8335193.3927 
---------------- Step     4450 ----- CPU =   1030.8410 (sec) ----------------
TotEng   =   -678913.3801 KinEng   =    582371.0664 Temp     =       300.7633 
PotEng   =  -1261284.4465 E_bond   =     69577.2114 E_angle  =    298387.3278 
E_dihed  =    142441.4446 E_impro  =      6130.7990 E_vdwl   =    -56350.6729 
E_coul   =   5682274.1952 E_long   =  -7403744.7515 Press    =        58.9786 
Volume   =   8335341.2179 
---------------- Step     4500 ----- CPU =   1042.5787 (sec) ----------------
TotEng   =   -680565.0610 KinEng   =    580481.3817 Temp     =       299.7874 
PotEng   =  -1261046.4428 E_bond   =     69507.0983 E_angle  =    298547.3750 
E_dihed  =    142572.1483 E_impro  =      6097.8357 E_vdwl   =    -56178.8887 
E_coul   =   5682197.4807 E_long   =  -7403789.4920 Press    =       -48.5249 
Volume   =   8335964.9862 
---------------- Step     4550 ----- CPU =   1054.0749 (sec) ----------------
TotEng   =   -682112.2353 KinEng   =    580245.8422 Temp     =       299.6657 
PotEng   =  -1262358.0775 E_bond   =     69628.9297 E_angle  =    298154.7648 
E_dihed  =    142408.1825 E_impro  =      6020.6397 E_vdwl   =    -56007.8828 
E_coul   =   5681224.4810 E_long   =  -7403787.1923 Press    =       -69.3023 
Volume   =   8336573.2899 
---------------- Step     4600 ----- CPU =   1065.8058 (sec) ----------------
TotEng   =   -682515.9186 KinEng   =    580101.4099 Temp     =       299.5911 
PotEng   =  -1262617.3285 E_bond   =     69598.9306 E_angle  =    298322.0752 
E_dihed  =    142093.0480 E_impro  =      6118.2700 E_vdwl   =    -56777.8851 
E_coul   =   5681757.2501 E_long   =  -7403729.0173 Press    =       -87.8390 
Volume   =   8337344.6233 
---------------- Step     4650 ----- CPU =   1077.3053 (sec) ----------------
TotEng   =   -681729.2546 KinEng   =    580669.2235 Temp     =       299.8844 
PotEng   =  -1262398.4781 E_bond   =     69655.4451 E_angle  =    298340.1804 
E_dihed  =    142351.0616 E_impro  =      6029.5209 E_vdwl   =    -56405.1499 
E_coul   =   5681432.4081 E_long   =  -7403801.9443 Press    =        24.2828 
Volume   =   8337968.3290 
---------------- Step     4700 ----- CPU =   1088.8195 (sec) ----------------
TotEng   =   -680496.1720 KinEng   =    580840.5036 Temp     =       299.9728 
PotEng   =  -1261336.6756 E_bond   =     69557.3380 E_angle  =    298733.5918 
E_dihed  =    142489.7963 E_impro  =      6099.0645 E_vdwl   =    -56105.5369 
E_coul   =   5681727.9969 E_long   =  -7403838.9262 Press    =        17.7379 
Volume   =   8338034.7868 
---------------- Step     4750 ----- CPU =   1100.5431 (sec) ----------------
TotEng   =   -679642.1120 KinEng   =    581420.5012 Temp     =       300.2724 
PotEng   =  -1261062.6133 E_bond   =     69720.0575 E_angle  =    298934.6174 
E_dihed  =    142400.3419 E_impro  =      6119.2824 E_vdwl   =    -55948.0029 
E_coul   =   5681500.8069 E_long   =  -7403789.7165 Press    =       -70.0249 
Volume   =   8337545.7482 
---------------- Step     4800 ----- CPU =   1112.0491 (sec) ----------------
TotEng   =   -679855.9559 KinEng   =    581027.3253 Temp     =       300.0693 
PotEng   =  -1260883.2812 E_bond   =     69522.0756 E_angle  =    299164.7158 
E_dihed  =    142373.7589 E_impro  =      6094.6931 E_vdwl   =    -56036.7225 
E_coul   =   5681832.8634 E_long   =  -7403834.6654 Press    =        71.0350 
Volume   =   8337431.3620 
---------------- Step     4850 ----- CPU =   1123.5713 (sec) ----------------
TotEng   =   -681435.1109 KinEng   =    580596.8245 Temp     =       299.8470 
PotEng   =  -1262031.9354 E_bond   =     69841.7380 E_angle  =    298478.2487 
E_dihed  =    141879.2568 E_impro  =      6127.4433 E_vdwl   =    -56151.0420 
E_coul   =   5681641.4517 E_long   =  -7403849.0319 Press    =         6.5766 
Volume   =   8337957.4314 
---------------- Step     4900 ----- CPU =   1136.0986 (sec) ----------------
TotEng   =   -682604.3368 KinEng   =    579469.6419 Temp     =       299.2649 
PotEng   =  -1262073.9786 E_bond   =     69733.1852 E_angle  =    298492.4787 
E_dihed  =    142413.6831 E_impro  =      6053.8089 E_vdwl   =    -57226.3987 
E_coul   =   5682198.3682 E_long   =  -7403739.1041 Press    =      -111.6718 
Volume   =   8338566.0860 
---------------- Step     4950 ----- CPU =   1147.5951 (sec) ----------------
TotEng   =   -682003.2524 KinEng   =    579869.2579 Temp     =       299.4712 
PotEng   =  -1261872.5103 E_bond   =     69356.7620 E_angle  =    298847.2483 
E_dihed  =    142465.1449 E_impro  =      6157.7106 E_vdwl   =    -56101.3240 
E_coul   =   5681216.1544 E_long   =  -7403814.2064 Press    =       -17.1472 
Volume   =   8338528.6097 
---------------- Step     5000 ----- CPU =   1159.0756 (sec) ----------------
TotEng   =   -680472.9279 KinEng   =    580872.8608 Temp     =       299.9895 
PotEng   =  -1261345.7887 E_bond   =     69855.3590 E_angle  =    298707.6065 
E_dihed  =    142480.9967 E_impro  =      6072.9391 E_vdwl   =    -56286.4878 
E_coul   =   5681636.0731 E_long   =  -7403812.2751 Press    =       -48.2692 
Volume   =   8338396.8722 
---------------- Step     5050 ----- CPU =   1170.7808 (sec) ----------------
TotEng   =   -679507.4318 KinEng   =    582147.0890 Temp     =       300.6476 
PotEng   =  -1261654.5208 E_bond   =     70132.6271 E_angle  =    298470.6449 
E_dihed  =    142012.1905 E_impro  =      6001.6838 E_vdwl   =    -55257.9684 
E_coul   =   5680797.5850 E_long   =  -7403811.2837 Press    =       -90.1034 
Volume   =   8337662.0142 
---------------- Step     5100 ----- CPU =   1182.2587 (sec) ----------------
TotEng   =   -680128.6566 KinEng   =    581443.6577 Temp     =       300.2843 
PotEng   =  -1261572.3143 E_bond   =     70155.7405 E_angle  =    299134.1839 
E_dihed  =    142185.1439 E_impro  =      6081.9765 E_vdwl   =    -55105.2539 
E_coul   =   5679793.0086 E_long   =  -7403817.1139 Press    =        48.3529 
Volume   =   8336704.2513 
---------------- Step     5150 ----- CPU =   1193.7360 (sec) ----------------
TotEng   =   -682417.0081 KinEng   =    581387.9033 Temp     =       300.2555 
PotEng   =  -1263804.9114 E_bond   =     69596.1415 E_angle  =    298115.8429 
E_dihed  =    141929.9074 E_impro  =      6035.4685 E_vdwl   =    -56486.0883 
E_coul   =   5680770.7588 E_long   =  -7403766.9423 Press    =       -65.0301 
Volume   =   8337254.4638 
---------------- Step     5200 ----- CPU =   1205.4540 (sec) ----------------
TotEng   =   -683662.1072 KinEng   =    580290.9038 Temp     =       299.6890 
PotEng   =  -1263953.0110 E_bond   =     69784.2948 E_angle  =    298033.8820 
E_dihed  =    142169.8226 E_impro  =      6053.9891 E_vdwl   =    -56413.0490 
E_coul   =   5680303.8641 E_long   =  -7403885.8146 Press    =      -149.9461 
Volume   =   8337644.5164 
---------------- Step     5250 ----- CPU =   1216.9297 (sec) ----------------
TotEng   =   -683036.2356 KinEng   =    580625.1037 Temp     =       299.8616 
PotEng   =  -1263661.3393 E_bond   =     69826.7106 E_angle  =    298716.1190 
E_dihed  =    142200.6359 E_impro  =      6111.5475 E_vdwl   =    -55486.9087 
E_coul   =   5678833.8503 E_long   =  -7403863.2938 Press    =       -19.6103 
Volume   =   8336715.5503 
---------------- Step     5300 ----- CPU =   1229.2132 (sec) ----------------
TotEng   =   -681197.5012 KinEng   =    580449.0714 Temp     =       299.7707 
PotEng   =  -1261646.5726 E_bond   =     69670.0146 E_angle  =    298524.0817 
E_dihed  =    142265.1795 E_impro  =      6098.7518 E_vdwl   =    -54486.3835 
E_coul   =   5680080.1125 E_long   =  -7403798.3292 Press    =        37.3974 
Volume   =   8335381.7652 
---------------- Step     5350 ----- CPU =   1240.8983 (sec) ----------------
TotEng   =   -679250.0051 KinEng   =    581435.2540 Temp     =       300.2800 
PotEng   =  -1260685.2591 E_bond   =     70115.5573 E_angle  =    299209.6892 
E_dihed  =    142486.1971 E_impro  =      6047.1162 E_vdwl   =    -56911.9140 
E_coul   =   5682208.6391 E_long   =  -7403840.5439 Press    =       -48.8426 
Volume   =   8335075.7761 
---------------- Step     5400 ----- CPU =   1252.6117 (sec) ----------------
TotEng   =   -678932.0084 KinEng   =    582566.2076 Temp     =       300.8641 
PotEng   =  -1261498.2160 E_bond   =     70285.1841 E_angle  =    299451.4445 
E_dihed  =    141822.1952 E_impro  =      6012.3286 E_vdwl   =    -55973.3010 
E_coul   =   5680828.1765 E_long   =  -7403924.2438 Press    =       -25.0923 
Volume   =   8334098.8599 
---------------- Step     5450 ----- CPU =   1264.0857 (sec) ----------------
TotEng   =   -680788.1682 KinEng   =    580800.6849 Temp     =       299.9523 
PotEng   =  -1261588.8531 E_bond   =     69812.6163 E_angle  =    299710.1099 
E_dihed  =    142130.5587 E_impro  =      6083.2051 E_vdwl   =    -55420.8261 
E_coul   =   5679903.7982 E_long   =  -7403808.3152 Press    =        82.9237 
Volume   =   8333126.8521 
---------------- Step     5500 ----- CPU =   1275.5630 (sec) ----------------
TotEng   =   -683155.1414 KinEng   =    580383.9480 Temp     =       299.7370 
PotEng   =  -1263539.0894 E_bond   =     69677.5853 E_angle  =    298213.5118 
E_dihed  =    142169.5739 E_impro  =      6046.6635 E_vdwl   =    -56320.0758 
E_coul   =   5680553.6905 E_long   =  -7403880.0385 Press    =       -76.9276 
Volume   =   8333229.9350 
---------------- Step     5550 ----- CPU =   1287.2731 (sec) ----------------
TotEng   =   -684220.4443 KinEng   =    580003.5560 Temp     =       299.5406 
PotEng   =  -1264224.0003 E_bond   =     69690.3764 E_angle  =    297559.9124 
E_dihed  =    142201.0060 E_impro  =      5965.6924 E_vdwl   =    -55866.3994 
E_coul   =   5680069.9457 E_long   =  -7403844.5337 Press    =       -19.1172 
Volume   =   8333528.6188 
---------------- Step     5600 ----- CPU =   1298.7690 (sec) ----------------
TotEng   =   -683299.5721 KinEng   =    580241.8981 Temp     =       299.6637 
PotEng   =  -1263541.4702 E_bond   =     69807.5262 E_angle  =    298826.1334 
E_dihed  =    142067.8784 E_impro  =      6053.2358 E_vdwl   =    -55926.8660 
E_coul   =   5679421.6350 E_long   =  -7403791.0130 Press    =       -41.7368 
Volume   =   8333417.8211 
---------------- Step     5650 ----- CPU =   1310.2599 (sec) ----------------
TotEng   =   -681301.9448 KinEng   =    580871.7372 Temp     =       299.9890 
PotEng   =  -1262173.6820 E_bond   =     70134.6441 E_angle  =    299282.9143 
E_dihed  =    142025.7582 E_impro  =      6133.6822 E_vdwl   =    -56871.8864 
E_coul   =   5680993.0980 E_long   =  -7403871.8924 Press    =       -39.3625 
Volume   =   8333588.8772 
---------------- Step     5700 ----- CPU =   1321.9697 (sec) ----------------
TotEng   =   -679516.1793 KinEng   =    582049.1015 Temp     =       300.5970 
PotEng   =  -1261565.2808 E_bond   =     69847.0504 E_angle  =    299409.0421 
E_dihed  =    142115.5655 E_impro  =      6052.4348 E_vdwl   =    -55720.5936 
E_coul   =   5680577.9568 E_long   =  -7403846.7368 Press    =        -3.9654 
Volume   =   8334145.0302 
---------------- Step     5750 ----- CPU =   1333.4487 (sec) ----------------
TotEng   =   -679633.0470 KinEng   =    581983.6434 Temp     =       300.5632 
PotEng   =  -1261616.6904 E_bond   =     70009.7008 E_angle  =    298792.0500 
E_dihed  =    142357.0641 E_impro  =      6092.1561 E_vdwl   =    -55904.9637 
E_coul   =   5680839.3998 E_long   =  -7403802.0975 Press    =       -68.2687 
Volume   =   8334751.8229 
---------------- Step     5800 ----- CPU =   1344.9358 (sec) ----------------
TotEng   =   -681750.7863 KinEng   =    580631.9707 Temp     =       299.8651 
PotEng   =  -1262382.7570 E_bond   =     69732.1367 E_angle  =    299383.8253 
E_dihed  =    142013.8761 E_impro  =      6139.4187 E_vdwl   =    -55820.3239 
E_coul   =   5680018.2553 E_long   =  -7403849.9452 Press    =        38.6306 
Volume   =   8334788.1043 
---------------- Step     5850 ----- CPU =   1356.6423 (sec) ----------------
TotEng   =   -684248.3716 KinEng   =    579763.2304 Temp     =       299.4165 
PotEng   =  -1264011.6020 E_bond   =     69837.4032 E_angle  =    298368.8176 
E_dihed  =    142299.7004 E_impro  =      6046.0934 E_vdwl   =    -56359.4539 
E_coul   =   5679541.5394 E_long   =  -7403745.7023 Press    =       -70.8509 
Volume   =   8334794.2838 
---------------- Step     5900 ----- CPU =   1368.1295 (sec) ----------------
TotEng   =   -684756.7226 KinEng   =    580072.7731 Temp     =       299.5763 
PotEng   =  -1264829.4957 E_bond   =     69786.4659 E_angle  =    298578.1791 
E_dihed  =    141670.8470 E_impro  =      6074.7752 E_vdwl   =    -56888.6161 
E_coul   =   5679765.9400 E_long   =  -7403817.0867 Press    =      -124.3703 
Volume   =   8334372.9241 
---------------- Step     5950 ----- CPU =   1379.8302 (sec) ----------------
TotEng   =   -683571.8842 KinEng   =    580244.8517 Temp     =       299.6652 
PotEng   =  -1263816.7359 E_bond   =     69855.0553 E_angle  =    298575.8340 
E_dihed  =    142184.2434 E_impro  =      6080.3716 E_vdwl   =    -55636.4171 
E_coul   =   5678874.6508 E_long   =  -7403750.4738 Press    =       -58.5290 
Volume   =   8333163.7790 
---------------- Step     6000 ----- CPU =   1391.3251 (sec) ----------------
TotEng   =   -681677.9386 KinEng   =    581772.5512 Temp     =       300.4542 
PotEng   =  -1263450.4898 E_bond   =     69764.9402 E_angle  =    299056.8814 
E_dihed  =    142012.2758 E_impro  =      6045.1302 E_vdwl   =    -55700.7860 
E_coul   =   5679214.7981 E_long   =  -7403843.7294 Press    =        19.9240 
Volume   =   8331975.1733 
---------------- Step     6050 ----- CPU =   1403.0509 (sec) ----------------
TotEng   =   -680428.6688 KinEng   =    581232.4612 Temp     =       300.1753 
PotEng   =  -1261661.1300 E_bond   =     69995.5518 E_angle  =    299898.1813 
E_dihed  =    142464.3518 E_impro  =      6083.6720 E_vdwl   =    -55574.7559 
E_coul   =   5679273.9753 E_long   =  -7403802.1062 Press    =        -0.4726 
Volume   =   8330818.6724 
---------------- Step     6100 ----- CPU =   1414.5413 (sec) ----------------
TotEng   =   -681110.5325 KinEng   =    580810.2616 Temp     =       299.9572 
PotEng   =  -1261920.7940 E_bond   =     69873.4769 E_angle  =    299495.9255 
E_dihed  =    142268.0523 E_impro  =      6128.3676 E_vdwl   =    -55112.8496 
E_coul   =   5679276.1195 E_long   =  -7403849.8864 Press    =        31.0051 
Volume   =   8329845.4561 
---------------- Step     6150 ----- CPU =   1426.2895 (sec) ----------------
TotEng   =   -683159.9091 KinEng   =    580297.9504 Temp     =       299.6926 
PotEng   =  -1263457.8594 E_bond   =     69887.2262 E_angle  =    298631.0364 
E_dihed  =    142314.0453 E_impro  =      6107.1505 E_vdwl   =    -56915.1460 
E_coul   =   5680330.5596 E_long   =  -7403812.7315 Press    =       -54.3787 
Volume   =   8329469.2012 
---------------- Step     6200 ----- CPU =   1437.7949 (sec) ----------------
TotEng   =   -684251.1682 KinEng   =    579808.6537 Temp     =       299.4399 
PotEng   =  -1264059.8219 E_bond   =     69414.0879 E_angle  =    298358.2924 
E_dihed  =    142333.7359 E_impro  =      6054.2951 E_vdwl   =    -55338.5535 
E_coul   =   5678975.6840 E_long   =  -7403857.3637 Press    =       -16.8954 
Volume   =   8329495.7643 
---------------- Step     6250 ----- CPU =   1449.2997 (sec) ----------------
TotEng   =   -683136.0793 KinEng   =    580114.1720 Temp     =       299.5977 
PotEng   =  -1263250.2513 E_bond   =     70278.5743 E_angle  =    299042.2552 
E_dihed  =    142079.4905 E_impro  =      6125.7707 E_vdwl   =    -55511.6918 
E_coul   =   5678621.6082 E_long   =  -7403886.2584 Press    =       -19.2309 
Volume   =   8330016.4481 
---------------- Step     6300 ----- CPU =   1461.0539 (sec) ----------------
TotEng   =   -681192.9614 KinEng   =    581012.0802 Temp     =       300.0614 
PotEng   =  -1262205.0416 E_bond   =     70024.6153 E_angle  =    299652.8722 
E_dihed  =    142224.7829 E_impro  =      6183.3692 E_vdwl   =    -55697.6591 
E_coul   =   5679276.7561 E_long   =  -7403869.7781 Press    =        49.4917 
Volume   =   8330821.3185 
---------------- Step     6350 ----- CPU =   1472.5616 (sec) ----------------
TotEng   =   -680552.0181 KinEng   =    582671.1984 Temp     =       300.9183 
PotEng   =  -1263223.2165 E_bond   =     70215.7277 E_angle  =    298897.2678 
E_dihed  =    142198.8639 E_impro  =      6082.3495 E_vdwl   =    -56153.6950 
E_coul   =   5679316.2644 E_long   =  -7403779.9950 Press    =       -58.1129 
Volume   =   8331656.1153 
---------------- Step     6400 ----- CPU =   1484.0715 (sec) ----------------
TotEng   =   -682265.6136 KinEng   =    581100.9570 Temp     =       300.1073 
PotEng   =  -1263366.5706 E_bond   =     69919.0609 E_angle  =    299189.4080 
E_dihed  =    142091.1956 E_impro  =      6195.5452 E_vdwl   =    -55114.0209 
E_coul   =   5678196.5888 E_long   =  -7403844.3482 Press    =       -80.6255 
Volume   =   8333017.2690 
---------------- Step     6450 ----- CPU =   1495.7862 (sec) ----------------
TotEng   =   -684679.2457 KinEng   =    579308.5167 Temp     =       299.1816 
PotEng   =  -1263987.7624 E_bond   =     70169.9572 E_angle  =    298816.1773 
E_dihed  =    142149.7647 E_impro  =      6068.8642 E_vdwl   =    -55177.8605 
E_coul   =   5677797.9840 E_long   =  -7403812.6493 Press    =       -50.3088 
Volume   =   8334060.6127 
---------------- Step     6500 ----- CPU =   1507.3028 (sec) ----------------
TotEng   =   -685065.8363 KinEng   =    579626.4773 Temp     =       299.3459 
PotEng   =  -1264692.3135 E_bond   =     69582.2302 E_angle  =    298308.4668 
E_dihed  =    141864.2320 E_impro  =      6099.8169 E_vdwl   =    -56683.8742 
E_coul   =   5679957.2749 E_long   =  -7403820.4601 Press    =       -25.3846 
Volume   =   8334676.2843 
---------------- Step     6550 ----- CPU =   1519.0596 (sec) ----------------
TotEng   =   -682796.0339 KinEng   =    580937.5678 Temp     =       300.0230 
PotEng   =  -1263733.6017 E_bond   =     70255.2081 E_angle  =    298685.0568 
E_dihed  =    141930.4779 E_impro  =      6150.7247 E_vdwl   =    -56716.8022 
E_coul   =   5679788.1995 E_long   =  -7403826.4665 Press    =      -139.7847 
Volume   =   8335111.5316 
---------------- Step     6600 ----- CPU =   1530.5733 (sec) ----------------
TotEng   =   -680067.9951 KinEng   =    581658.7824 Temp     =       300.3954 
PotEng   =  -1261726.7775 E_bond   =     69910.0293 E_angle  =    299764.9715 
E_dihed  =    142467.2832 E_impro  =      6020.1603 E_vdwl   =    -56093.6044 
E_coul   =   5680043.3766 E_long   =  -7403838.9940 Press    =       -66.2197 
Volume   =   8334258.2387 
---------------- Step     6650 ----- CPU =   1542.0858 (sec) ----------------
TotEng   =   -679174.5340 KinEng   =    582710.2111 Temp     =       300.9384 
PotEng   =  -1261884.7451 E_bond   =     69898.0277 E_angle  =    299867.5683 
E_dihed  =    142326.6604 E_impro  =      6190.5513 E_vdwl   =    -55804.7450 
E_coul   =   5679505.0707 E_long   =  -7403867.8785 Press    =         8.6881 
Volume   =   8332374.8513 
---------------- Step     6700 ----- CPU =   1553.8195 (sec) ----------------
TotEng   =   -680794.1318 KinEng   =    581578.1671 Temp     =       300.3538 
PotEng   =  -1262372.2988 E_bond   =     70290.9369 E_angle  =    299265.0356 
E_dihed  =    142652.3832 E_impro  =      6123.8537 E_vdwl   =    -55771.9519 
E_coul   =   5678919.3288 E_long   =  -7403851.8851 Press    =       -27.7460 
Volume   =   8330371.1921 
---------------- Step     6750 ----- CPU =   1565.3427 (sec) ----------------
TotEng   =   -683560.4536 KinEng   =    580656.5882 Temp     =       299.8778 
PotEng   =  -1264217.0418 E_bond   =     69826.1912 E_angle  =    299115.9111 
E_dihed  =    142080.4140 E_impro  =      6107.3365 E_vdwl   =    -56370.6712 
E_coul   =   5678828.1496 E_long   =  -7403804.3730 Press    =         7.3153 
Volume   =   8329410.4130 
---------------- Step     6800 ----- CPU =   1577.0804 (sec) ----------------
TotEng   =   -685702.6465 KinEng   =    579832.6233 Temp     =       299.4523 
PotEng   =  -1265535.2698 E_bond   =     69663.1470 E_angle  =    298005.4680 
E_dihed  =    142074.4797 E_impro  =      6118.5440 E_vdwl   =    -55698.0739 
E_coul   =   5678198.2437 E_long   =  -7403897.0783 Press    =       -80.0274 
Volume   =   8329422.8859 
---------------- Step     6850 ----- CPU =   1588.8463 (sec) ----------------
TotEng   =   -684989.6242 KinEng   =    580042.8752 Temp     =       299.5609 
PotEng   =  -1265032.4994 E_bond   =     69798.7071 E_angle  =    299094.6302 
E_dihed  =    141945.9809 E_impro  =      6108.3612 E_vdwl   =    -56006.4278 
E_coul   =   5677872.9159 E_long   =  -7403846.6669 Press    =       -20.1934 
Volume   =   8329485.9710 
---------------- Step     6900 ----- CPU =   1600.3777 (sec) ----------------
TotEng   =   -682912.3272 KinEng   =    581876.9874 Temp     =       300.5081 
PotEng   =  -1264789.3146 E_bond   =     69741.1245 E_angle  =    298913.7610 
E_dihed  =    141879.9285 E_impro  =      6055.5335 E_vdwl   =    -55108.0664 
E_coul   =   5677617.7508 E_long   =  -7403889.3465 Press    =       -33.6873 
Volume   =   8329089.9685 
---------------- Step     6950 ----- CPU =   1612.1347 (sec) ----------------
TotEng   =   -681168.5718 KinEng   =    581145.1127 Temp     =       300.1301 
PotEng   =  -1262313.6846 E_bond   =     69726.8087 E_angle  =    300042.9265 
E_dihed  =    142232.1217 E_impro  =      6107.1203 E_vdwl   =    -54994.5123 
E_coul   =   5678428.0789 E_long   =  -7403856.2284 Press    =        53.5274 
Volume   =   8329117.4419 
---------------- Step     7000 ----- CPU =   1623.6687 (sec) ----------------
TotEng   =   -680905.6106 KinEng   =    581592.4499 Temp     =       300.3612 
PotEng   =  -1262498.0605 E_bond   =     70342.1418 E_angle  =    299825.1473 
E_dihed  =    142048.3445 E_impro  =      6072.0302 E_vdwl   =    -54241.1602 
E_coul   =   5677326.8997 E_long   =  -7403871.4637 Press    =       -11.1712 
Volume   =   8330511.3944 
---------------- Step     7050 ----- CPU =   1635.1917 (sec) ----------------
TotEng   =   -682208.9736 KinEng   =    581284.6927 Temp     =       300.2022 
PotEng   =  -1263493.6663 E_bond   =     69495.1316 E_angle  =    299204.5253 
E_dihed  =    142103.0890 E_impro  =      6048.5997 E_vdwl   =    -56183.1430 
E_coul   =   5679620.6517 E_long   =  -7403782.5207 Press    =       -98.7170 
Volume   =   8332078.7161 
---------------- Step     7100 ----- CPU =   1646.9541 (sec) ----------------
TotEng   =   -684169.5793 KinEng   =    579652.0008 Temp     =       299.3590 
PotEng   =  -1263821.5801 E_bond   =     69707.2562 E_angle  =    299278.3960 
E_dihed  =    142006.0714 E_impro  =      6095.8287 E_vdwl   =    -55751.8269 
E_coul   =   5678695.6378 E_long   =  -7403852.9433 Press    =       -19.3422 
Volume   =   8332482.2873 
---------------- Step     7150 ----- CPU =   1658.4582 (sec) ----------------
TotEng   =   -684237.3239 KinEng   =    579373.8167 Temp     =       299.2154 
PotEng   =  -1263611.1405 E_bond   =     70045.4102 E_angle  =    299889.8838 
E_dihed  =    142338.7451 E_impro  =      5980.8901 E_vdwl   =    -55943.8954 
E_coul   =   5677899.7159 E_long   =  -7403821.8902 Press    =       -23.5910 
Volume   =   8332669.8047 
---------------- Step     7200 ----- CPU =   1670.2086 (sec) ----------------
TotEng   =   -682927.5423 KinEng   =    581016.3687 Temp     =       300.0637 
PotEng   =  -1263943.9110 E_bond   =     70085.8275 E_angle  =    299099.4698 
E_dihed  =    142284.3378 E_impro  =      6035.2825 E_vdwl   =    -56196.4554 
E_coul   =   5678511.2994 E_long   =  -7403763.6726 Press    =       -75.4492 
Volume   =   8332035.2241 
---------------- Step     7250 ----- CPU =   1681.7314 (sec) ----------------
TotEng   =   -682024.6304 KinEng   =    581768.5928 Temp     =       300.4521 
PotEng   =  -1263793.2232 E_bond   =     69896.1242 E_angle  =    299907.5236 
E_dihed  =    141935.6236 E_impro  =      6103.8835 E_vdwl   =    -54365.1211 
E_coul   =   5676555.5477 E_long   =  -7403826.8048 Press    =         9.6948 
Volume   =   8330089.3860 
---------------- Step     7300 ----- CPU =   1693.2337 (sec) ----------------
TotEng   =   -682146.2141 KinEng   =    580780.1093 Temp     =       299.9416 
PotEng   =  -1262926.3233 E_bond   =     69848.4826 E_angle  =    300267.3231 
E_dihed  =    142226.3686 E_impro  =      6071.2875 E_vdwl   =    -55149.6920 
E_coul   =   5677523.1141 E_long   =  -7403713.2073 Press    =         2.3677 
Volume   =   8328649.7797 
---------------- Step     7350 ----- CPU =   1704.9925 (sec) ----------------
TotEng   =   -683399.1038 KinEng   =    580968.1912 Temp     =       300.0388 
PotEng   =  -1264367.2951 E_bond   =     69775.1562 E_angle  =    299516.3703 
E_dihed  =    142266.7243 E_impro  =      6112.8577 E_vdwl   =    -55154.9796 
E_coul   =   5676984.5332 E_long   =  -7403867.9571 Press    =       -43.3184 
Volume   =   8327583.3285 
---------------- Step     7400 ----- CPU =   1716.5062 (sec) ----------------
TotEng   =   -684406.7297 KinEng   =    579700.2005 Temp     =       299.3839 
PotEng   =  -1264106.9301 E_bond   =     69902.8409 E_angle  =    299512.9770 
E_dihed  =    142179.0396 E_impro  =      6095.2373 E_vdwl   =    -55342.0252 
E_coul   =   5677406.7178 E_long   =  -7403861.7176 Press    =       -20.2509 
Volume   =   8326737.3642 
---------------- Step     7450 ----- CPU =   1728.2572 (sec) ----------------
TotEng   =   -684345.2940 KinEng   =    580588.2360 Temp     =       299.8425 
PotEng   =  -1264933.5299 E_bond   =     70205.5762 E_angle  =    299254.7050 
E_dihed  =    142170.6038 E_impro  =      6072.4804 E_vdwl   =    -55148.7512 
E_coul   =   5676416.2378 E_long   =  -7403904.3818 Press    =       -53.1037 
Volume   =   8326144.0659 
---------------- Step     7500 ----- CPU =   1739.8031 (sec) ----------------
TotEng   =   -683366.8423 KinEng   =    580949.7918 Temp     =       300.0293 
PotEng   =  -1264316.6341 E_bond   =     69972.2207 E_angle  =    299487.6851 
E_dihed  =    142244.0615 E_impro  =      6076.8335 E_vdwl   =    -56260.4949 
E_coul   =   5678046.7436 E_long   =  -7403883.6836 Press    =       -35.2410 
Volume   =   8325354.1557 
---------------- Step     7550 ----- CPU =   1751.3033 (sec) ----------------
TotEng   =   -682293.5716 KinEng   =    581266.6125 Temp     =       300.1929 
PotEng   =  -1263560.1841 E_bond   =     70378.2077 E_angle  =    299780.4740 
E_dihed  =    142014.0474 E_impro  =      6126.5294 E_vdwl   =    -54959.1927 
E_coul   =   5676902.4370 E_long   =  -7403802.6870 Press    =        -6.2392 
Volume   =   8324274.4564 
---------------- Step     7600 ----- CPU =   1763.0557 (sec) ----------------
TotEng   =   -682228.4691 KinEng   =    582024.5259 Temp     =       300.5843 
PotEng   =  -1264252.9951 E_bond   =     69893.8368 E_angle  =    299574.9895 
E_dihed  =    142029.7500 E_impro  =      6050.5886 E_vdwl   =    -54803.6791 
E_coul   =   5676765.2597 E_long   =  -7403763.7406 Press    =        27.3025 
Volume   =   8323706.3563 
---------------- Step     7650 ----- CPU =   1774.5849 (sec) ----------------
TotEng   =   -683603.6151 KinEng   =    581293.2164 Temp     =       300.2066 
PotEng   =  -1264896.8315 E_bond   =     69863.4142 E_angle  =    299587.9847 
E_dihed  =    141986.4153 E_impro  =      6035.8179 E_vdwl   =    -55193.5968 
E_coul   =   5676574.2270 E_long   =  -7403751.0938 Press    =        11.5138 
Volume   =   8323162.2083 
---------------- Step     7700 ----- CPU =   1786.1176 (sec) ----------------
TotEng   =   -685163.2259 KinEng   =    579857.9830 Temp     =       299.4654 
PotEng   =  -1265021.2090 E_bond   =     69849.2416 E_angle  =    299784.2851 
E_dihed  =    141997.1782 E_impro  =      6157.1059 E_vdwl   =    -55693.8828 
E_coul   =   5676751.8020 E_long   =  -7403866.9389 Press    =       -21.5991 
Volume   =   8323133.9025 
---------------- Step     7750 ----- CPU =   1797.8699 (sec) ----------------
TotEng   =   -685188.1582 KinEng   =    580209.3180 Temp     =       299.6469 
PotEng   =  -1265397.4762 E_bond   =     70097.7336 E_angle  =    299400.1003 
E_dihed  =    142051.1884 E_impro  =      6032.1064 E_vdwl   =    -55511.4016 
E_coul   =   5676331.0238 E_long   =  -7403798.2271 Press    =       -51.2055 
Volume   =   8324033.2970 
---------------- Step     7800 ----- CPU =   1809.3930 (sec) ----------------
TotEng   =   -683820.2170 KinEng   =    580691.1263 Temp     =       299.8957 
PotEng   =  -1264511.3433 E_bond   =     70237.5895 E_angle  =    299228.3057 
E_dihed  =    142128.5533 E_impro  =      6089.6028 E_vdwl   =    -55704.9042 
E_coul   =   5677417.8650 E_long   =  -7403908.3555 Press    =       -37.8391 
Volume   =   8324685.0113 
---------------- Step     7850 ----- CPU =   1821.1340 (sec) ----------------
TotEng   =   -682160.4401 KinEng   =    582013.5576 Temp     =       300.5787 
PotEng   =  -1264173.9978 E_bond   =     69933.8971 E_angle  =    300266.7457 
E_dihed  =    142354.0135 E_impro  =      6085.8332 E_vdwl   =    -56347.2289 
E_coul   =   5677354.2947 E_long   =  -7403821.5529 Press    =       -62.5261 
Volume   =   8325611.4091 
---------------- Step     7900 ----- CPU =   1832.6587 (sec) ----------------
TotEng   =   -681780.1699 KinEng   =    581283.6643 Temp     =       300.2017 
PotEng   =  -1263063.8343 E_bond   =     70105.2505 E_angle  =    300557.6899 
E_dihed  =    141989.1065 E_impro  =      6089.4403 E_vdwl   =    -55573.8659 
E_coul   =   5677595.4099 E_long   =  -7403826.8654 Press    =        14.2037 
Volume   =   8326339.9438 
---------------- Step     7950 ----- CPU =   1844.3961 (sec) ----------------
TotEng   =   -682104.6918 KinEng   =    581093.0391 Temp     =       300.1033 
PotEng   =  -1263197.7309 E_bond   =     69753.7857 E_angle  =    300105.6432 
E_dihed  =    142051.1645 E_impro  =      6086.9651 E_vdwl   =    -55977.7756 
E_coul   =   5678574.4243 E_long   =  -7403791.9381 Press    =        23.1856 
Volume   =   8326697.5101 
---------------- Step     8000 ----- CPU =   1855.9113 (sec) ----------------
TotEng   =   -682991.5162 KinEng   =    580909.9729 Temp     =       300.0087 
PotEng   =  -1263901.4891 E_bond   =     70282.4532 E_angle  =    300151.0898 
E_dihed  =    141865.0812 E_impro  =      6016.1583 E_vdwl   =    -55452.4219 
E_coul   =   5677089.0832 E_long   =  -7403852.9330 Press    =       -37.2778 
Volume   =   8327432.8698 
---------------- Step     8050 ----- CPU =   1867.4331 (sec) ----------------
TotEng   =   -684031.6613 KinEng   =    580832.6785 Temp     =       299.9688 
PotEng   =  -1264864.3398 E_bond   =     69934.3612 E_angle  =    299632.9737 
E_dihed  =    142297.4952 E_impro  =      6039.4594 E_vdwl   =    -55717.3488 
E_coul   =   5676860.0982 E_long   =  -7403911.3787 Press    =       -33.9687 
Volume   =   8328925.4656 
---------------- Step     8100 ----- CPU =   1879.1741 (sec) ----------------
TotEng   =   -684587.6669 KinEng   =    580691.2899 Temp     =       299.8958 
PotEng   =  -1265278.9568 E_bond   =     69937.2622 E_angle  =    299380.6824 
E_dihed  =    142051.0472 E_impro  =      6095.9578 E_vdwl   =    -55866.1784 
E_coul   =   5676927.0612 E_long   =  -7403804.7892 Press    =       -32.0622 
Volume   =   8329432.5478 
---------------- Step     8150 ----- CPU =   1890.6639 (sec) ----------------
TotEng   =   -684123.9895 KinEng   =    579742.9107 Temp     =       299.4060 
PotEng   =  -1263866.9003 E_bond   =     70084.4058 E_angle  =    299327.0493 
E_dihed  =    142104.5483 E_impro  =      6204.2016 E_vdwl   =    -56137.4831 
E_coul   =   5678318.5079 E_long   =  -7403768.1301 Press    =       -84.7128 
Volume   =   8329808.2420 
---------------- Step     8200 ----- CPU =   1902.3765 (sec) ----------------
TotEng   =   -682832.6953 KinEng   =    580900.5676 Temp     =       300.0039 
PotEng   =  -1263733.2629 E_bond   =     70062.1278 E_angle  =    299572.9733 
E_dihed  =    141960.5204 E_impro  =      5992.7397 E_vdwl   =    -55783.0898 
E_coul   =   5678292.1480 E_long   =  -7403830.6823 Press    =       -55.3830 
Volume   =   8330625.3027 
---------------- Step     8250 ----- CPU =   1913.8714 (sec) ----------------
TotEng   =   -681493.5544 KinEng   =    581672.7962 Temp     =       300.4027 
PotEng   =  -1263166.3506 E_bond   =     70063.5675 E_angle  =    300322.2760 
E_dihed  =    142098.8664 E_impro  =      6039.1763 E_vdwl   =    -55572.5189 
E_coul   =   5677682.2911 E_long   =  -7403800.0090 Press    =        -3.9917 
Volume   =   8330348.1708 
---------------- Step     8300 ----- CPU =   1925.5916 (sec) ----------------
TotEng   =   -681576.5879 KinEng   =    581411.2290 Temp     =       300.2676 
PotEng   =  -1262987.8169 E_bond   =     70114.5950 E_angle  =    299980.7432 
E_dihed  =    142138.9098 E_impro  =      6109.5997 E_vdwl   =    -56141.5489 
E_coul   =   5678583.5631 E_long   =  -7403773.6788 Press    =       -12.5649 
Volume   =   8330513.4091 
---------------- Step     8350 ----- CPU =   1937.0803 (sec) ----------------
TotEng   =   -683147.1155 KinEng   =    581588.2620 Temp     =       300.3590 
PotEng   =  -1264735.3775 E_bond   =     70032.0856 E_angle  =    299474.2737 
E_dihed  =    142082.4019 E_impro  =      6043.1909 E_vdwl   =    -56000.1117 
E_coul   =   5677451.2277 E_long   =  -7403818.4456 Press    =       -73.3883 
Volume   =   8330597.8431 
---------------- Step     8400 ----- CPU =   1948.8169 (sec) ----------------
TotEng   =   -684661.3797 KinEng   =    580676.7233 Temp     =       299.8882 
PotEng   =  -1265338.1029 E_bond   =     69813.8456 E_angle  =    299901.7093 
E_dihed  =    141908.6291 E_impro  =      6165.5524 E_vdwl   =    -56053.9688 
E_coul   =   5676646.5518 E_long   =  -7403720.4224 Press    =       -30.5556 
Volume   =   8330338.4760 
---------------- Step     8450 ----- CPU =   1960.3155 (sec) ----------------
TotEng   =   -685502.5213 KinEng   =    580582.5422 Temp     =       299.8396 
PotEng   =  -1266085.0635 E_bond   =     69852.3587 E_angle  =    299320.6527 
E_dihed  =    141736.5961 E_impro  =      6121.8008 E_vdwl   =    -54658.3689 
E_coul   =   5675395.4990 E_long   =  -7403853.6019 Press    =       -25.2706 
Volume   =   8330332.8023 
---------------- Step     8500 ----- CPU =   1971.8060 (sec) ----------------
TotEng   =   -685439.7499 KinEng   =    579624.1985 Temp     =       299.3447 
PotEng   =  -1265063.9484 E_bond   =     69854.8856 E_angle  =    299634.2664 
E_dihed  =    141907.9992 E_impro  =      6141.5207 E_vdwl   =    -55555.5987 
E_coul   =   5676819.3399 E_long   =  -7403866.3615 Press    =      -126.2584 
Volume   =   8329966.6248 
---------------- Step     8550 ----- CPU =   1983.5227 (sec) ----------------
TotEng   =   -683654.5867 KinEng   =    580718.3947 Temp     =       299.9098 
PotEng   =  -1264372.9814 E_bond   =     69996.8220 E_angle  =    300111.1680 
E_dihed  =    142160.4991 E_impro  =      5970.3080 E_vdwl   =    -55049.0898 
E_coul   =   5676269.5270 E_long   =  -7403832.2158 Press    =        11.4138 
Volume   =   8328404.4139 
---------------- Step     8600 ----- CPU =   1995.0097 (sec) ----------------
TotEng   =   -681878.0672 KinEng   =    582762.1592 Temp     =       300.9653 
PotEng   =  -1264640.2264 E_bond   =     69997.1635 E_angle  =    300155.9075 
E_dihed  =    142094.9641 E_impro  =      6130.6246 E_vdwl   =    -54670.7315 
E_coul   =   5675506.9956 E_long   =  -7403855.1502 Press    =         4.3857 
Volume   =   8327067.3580 
---------------- Step     8650 ----- CPU =   2006.4997 (sec) ----------------
TotEng   =   -681977.5676 KinEng   =    581621.2742 Temp     =       300.3761 
PotEng   =  -1263598.8418 E_bond   =     69984.6090 E_angle  =    300073.5131 
E_dihed  =    142246.8845 E_impro  =      6075.8876 E_vdwl   =    -54841.7235 
E_coul   =   5676693.4532 E_long   =  -7403831.4659 Press    =        88.2810 
Volume   =   8326697.3910 
---------------- Step     8700 ----- CPU =   2018.2171 (sec) ----------------
TotEng   =   -683786.6027 KinEng   =    580723.5459 Temp     =       299.9124 
PotEng   =  -1264510.1485 E_bond   =     69993.1877 E_angle  =    299601.3899 
E_dihed  =    142109.2197 E_impro  =      6079.2044 E_vdwl   =    -55138.8184 
E_coul   =   5676681.6265 E_long   =  -7403835.9582 Press    =        30.6663 
Volume   =   8326562.7394 
---------------- Step     8750 ----- CPU =   2029.9343 (sec) ----------------
TotEng   =   -685274.0202 KinEng   =    579774.1869 Temp     =       299.4221 
PotEng   =  -1265048.2071 E_bond   =     69832.3397 E_angle  =    299937.9267 
E_dihed  =    142022.5383 E_impro  =      6053.4189 E_vdwl   =    -54767.7359 
E_coul   =   5675686.6801 E_long   =  -7403813.3749 Press    =        19.4322 
Volume   =   8326790.5570 
---------------- Step     8800 ----- CPU =   2041.4338 (sec) ----------------
TotEng   =   -685036.9973 KinEng   =    579792.1957 Temp     =       299.4314 
PotEng   =  -1264829.1929 E_bond   =     69922.3355 E_angle  =    300009.3954 
E_dihed  =    142189.8714 E_impro  =      6072.1661 E_vdwl   =    -56029.9130 
E_coul   =   5676907.9812 E_long   =  -7403901.0297 Press    =       -24.7444 
Volume   =   8327825.4515 
---------------- Step     8850 ----- CPU =   2052.9348 (sec) ----------------
TotEng   =   -683366.1619 KinEng   =    580360.1027 Temp     =       299.7247 
PotEng   =  -1263726.2646 E_bond   =     70340.5708 E_angle  =    300235.8173 
E_dihed  =    142135.6166 E_impro  =      6064.2434 E_vdwl   =    -55155.2557 
E_coul   =   5676580.9275 E_long   =  -7403928.1845 Press    =       -85.3353 
Volume   =   8329023.7184 
---------------- Step     8900 ----- CPU =   2064.6669 (sec) ----------------
TotEng   =   -681519.7707 KinEng   =    581392.6288 Temp     =       300.2580 
PotEng   =  -1262912.3995 E_bond   =     69897.9070 E_angle  =    300437.3151 
E_dihed  =    142348.3184 E_impro  =      6059.1482 E_vdwl   =    -54926.3664 
E_coul   =   5677057.0144 E_long   =  -7403785.7363 Press    =        11.1784 
Volume   =   8329566.7336 
---------------- Step     8950 ----- CPU =   2076.1438 (sec) ----------------
TotEng   =   -681207.0811 KinEng   =    581554.8718 Temp     =       300.3418 
PotEng   =  -1262761.9528 E_bond   =     70178.9654 E_angle  =    301150.4913 
E_dihed  =    142364.8264 E_impro  =      6183.9315 E_vdwl   =    -55003.1063 
E_coul   =   5676217.8010 E_long   =  -7403854.8621 Press    =        11.5545 
Volume   =   8330252.3591 
---------------- Step     9000 ----- CPU =   2087.6429 (sec) ----------------
TotEng   =   -682622.0977 KinEng   =    581326.5629 Temp     =       300.2239 
PotEng   =  -1263948.6606 E_bond   =     70156.5353 E_angle  =    299819.4929 
E_dihed  =    142359.9302 E_impro  =      6038.3618 E_vdwl   =    -54961.3016 
E_coul   =   5676440.4289 E_long   =  -7403802.1081 Press    =         2.7308 
Volume   =   8331062.2704 
---------------- Step     9050 ----- CPU =   2099.1441 (sec) ----------------
TotEng   =   -684599.4588 KinEng   =    580848.4045 Temp     =       299.9769 
PotEng   =  -1265447.8632 E_bond   =     70253.7602 E_angle  =    299683.6675 
E_dihed  =    141847.6777 E_impro  =      6122.5660 E_vdwl   =    -54747.2205 
E_coul   =   5675261.6216 E_long   =  -7403869.9357 Press    =       -74.8054 
Volume   =   8331993.8996 
---------------- Step     9100 ----- CPU =   2110.8781 (sec) ----------------
TotEng   =   -686032.4070 KinEng   =    579739.3623 Temp     =       299.4042 
PotEng   =  -1265771.7693 E_bond   =     69949.8009 E_angle  =    299858.9566 
E_dihed  =    142017.1234 E_impro  =      6070.7632 E_vdwl   =    -55232.2775 
E_coul   =   5675346.3612 E_long   =  -7403782.4971 Press    =        -1.7452 
Volume   =   8332472.9501 
---------------- Step     9150 ----- CPU =   2122.6018 (sec) ----------------
TotEng   =   -685891.7036 KinEng   =    580328.5206 Temp     =       299.7084 
PotEng   =  -1266220.2242 E_bond   =     70301.0020 E_angle  =    299389.5695 
E_dihed  =    141981.8899 E_impro  =      6036.4342 E_vdwl   =    -55221.5962 
E_coul   =   5675044.4190 E_long   =  -7403751.9426 Press    =      -108.8233 
Volume   =   8332239.4949 
---------------- Step     9200 ----- CPU =   2134.1149 (sec) ----------------
TotEng   =   -684267.6994 KinEng   =    580054.3694 Temp     =       299.5668 
PotEng   =  -1264322.0688 E_bond   =     69904.5566 E_angle  =    300627.4454 
E_dihed  =    142249.4497 E_impro  =      6068.1501 E_vdwl   =    -53358.5182 
E_coul   =   5674013.1106 E_long   =  -7403826.2630 Press    =        52.2842 
Volume   =   8330456.3781 
---------------- Step     9250 ----- CPU =   2145.8533 (sec) ----------------
TotEng   =   -682446.5706 KinEng   =    580830.3415 Temp     =       299.9676 
PotEng   =  -1263276.9121 E_bond   =     70441.9907 E_angle  =    300520.0948 
E_dihed  =    142102.8794 E_impro  =      6096.6745 E_vdwl   =    -54247.4226 
E_coul   =   5675630.3808 E_long   =  -7403821.5096 Press    =       -54.5332 
Volume   =   8329075.7197 
---------------- Step     9300 ----- CPU =   2157.3617 (sec) ----------------
TotEng   =   -681370.8177 KinEng   =    581923.3544 Temp     =       300.5321 
PotEng   =  -1263294.1722 E_bond   =     70175.3423 E_angle  =    300444.4411 
E_dihed  =    141819.7992 E_impro  =      6067.0117 E_vdwl   =    -55755.5010 
E_coul   =   5677767.9752 E_long   =  -7403813.2406 Press    =        12.4251 
Volume   =   8328254.0352 
---------------- Step     9350 ----- CPU =   2169.1088 (sec) ----------------
TotEng   =   -681591.6096 KinEng   =    581446.8170 Temp     =       300.2860 
PotEng   =  -1263038.4267 E_bond   =     70489.8999 E_angle  =    300250.0610 
E_dihed  =    142262.1371 E_impro  =      6053.3929 E_vdwl   =    -55324.7747 
E_coul   =   5677110.1445 E_long   =  -7403879.2874 Press    =       -39.5140 
Volume   =   8328121.5432 
---------------- Step     9400 ----- CPU =   2180.6288 (sec) ----------------
TotEng   =   -682884.5710 KinEng   =    582052.1964 Temp     =       300.5986 
PotEng   =  -1264936.7674 E_bond   =     70150.8020 E_angle  =    299501.4607 
E_dihed  =    142084.7469 E_impro  =      5980.2976 E_vdwl   =    -55312.1635 
E_coul   =   5676462.7460 E_long   =  -7403804.6570 Press    =       -45.8865 
Volume   =   8328149.8587 
---------------- Step     9450 ----- CPU =   2192.1398 (sec) ----------------
TotEng   =   -684665.0050 KinEng   =    580450.0847 Temp     =       299.7712 
PotEng   =  -1265115.0897 E_bond   =     69943.6932 E_angle  =    299907.7233 
E_dihed  =    141840.2173 E_impro  =      6056.8588 E_vdwl   =    -55825.8698 
E_coul   =   5676808.2026 E_long   =  -7403845.9151 Press    =       -22.4101 
Volume   =   8327785.9197 
---------------- Step     9500 ----- CPU =   2203.8855 (sec) ----------------
TotEng   =   -685785.6664 KinEng   =    580165.0446 Temp     =       299.6240 
PotEng   =  -1265950.7111 E_bond   =     70209.8665 E_angle  =    299484.0293 
E_dihed  =    142172.5178 E_impro  =      6105.7363 E_vdwl   =    -56522.5643 
E_coul   =   5676456.3374 E_long   =  -7403856.6341 Press    =      -177.4035 
Volume   =   8327116.0794 
---------------- Step     9550 ----- CPU =   2215.3948 (sec) ----------------
TotEng   =   -685258.9006 KinEng   =    580006.7401 Temp     =       299.5422 
PotEng   =  -1265265.6407 E_bond   =     70164.7420 E_angle  =    300109.3239 
E_dihed  =    142158.1172 E_impro  =      6104.0203 E_vdwl   =    -55254.9007 
E_coul   =   5675354.2911 E_long   =  -7403901.2346 Press    =       -35.3734 
Volume   =   8325766.7885 
---------------- Step     9600 ----- CPU =   2227.1233 (sec) ----------------
TotEng   =   -683868.7032 KinEng   =    581528.4838 Temp     =       300.3281 
PotEng   =  -1265397.1870 E_bond   =     70004.9851 E_angle  =    300112.6038 
E_dihed  =    141888.6489 E_impro  =      6111.9765 E_vdwl   =    -54756.5855 
E_coul   =   5675037.7129 E_long   =  -7403796.5286 Press    =        -5.6885 
Volume   =   8324129.9367 
---------------- Step     9650 ----- CPU =   2238.6218 (sec) ----------------
TotEng   =   -683144.0383 KinEng   =    581212.5144 Temp     =       300.1650 
PotEng   =  -1264356.5528 E_bond   =     70115.1620 E_angle  =    300368.0903 
E_dihed  =    142304.1461 E_impro  =      6013.2039 E_vdwl   =    -55176.0082 
E_coul   =   5675857.3010 E_long   =  -7403838.4478 Press    =       -57.4766 
Volume   =   8322873.4342 
---------------- Step     9700 ----- CPU =   2250.1267 (sec) ----------------
TotEng   =   -683260.2864 KinEng   =    581170.3841 Temp     =       300.1432 
PotEng   =  -1264430.6705 E_bond   =     70104.0004 E_angle  =    299906.0900 
E_dihed  =    142551.0390 E_impro  =      6049.7786 E_vdwl   =    -54687.5377 
E_coul   =   5675495.7018 E_long   =  -7403849.7426 Press    =        42.7849 
Volume   =   8321405.3634 
---------------- Step     9750 ----- CPU =   2261.8471 (sec) ----------------
TotEng   =   -683729.0584 KinEng   =    581379.9500 Temp     =       300.2514 
PotEng   =  -1265109.0084 E_bond   =     70071.1414 E_angle  =    300443.8963 
E_dihed  =    141615.3804 E_impro  =      6049.4417 E_vdwl   =    -55147.5646 
E_coul   =   5675645.5404 E_long   =  -7403786.8442 Press    =       -13.3381 
Volume   =   8320767.0280 
---------------- Step     9800 ----- CPU =   2273.3510 (sec) ----------------
TotEng   =   -684388.2472 KinEng   =    580471.4092 Temp     =       299.7822 
PotEng   =  -1264859.6564 E_bond   =     70066.0696 E_angle  =    300012.3627 
E_dihed  =    141888.2479 E_impro  =      6062.3729 E_vdwl   =    -54991.8482 
E_coul   =   5675868.3859 E_long   =  -7403765.2472 Press    =        85.6051 
Volume   =   8320991.9694 
---------------- Step     9850 ----- CPU =   2285.0862 (sec) ----------------
TotEng   =   -684347.7711 KinEng   =    581342.0169 Temp     =       300.2318 
PotEng   =  -1265689.7880 E_bond   =     69947.9287 E_angle  =    299634.8538 
E_dihed  =    141846.0641 E_impro  =      6076.6086 E_vdwl   =    -56455.5375 
E_coul   =   5677107.3072 E_long   =  -7403847.0129 Press    =       -90.6043 
Volume   =   8322486.1704 
---------------- Step     9900 ----- CPU =   2296.5864 (sec) ----------------
TotEng   =   -683736.1645 KinEng   =    580738.5836 Temp     =       299.9202 
PotEng   =  -1264474.7481 E_bond   =     70224.9756 E_angle  =    300693.4928 
E_dihed  =    142068.1451 E_impro  =      6109.5186 E_vdwl   =    -54618.5092 
E_coul   =   5674841.6965 E_long   =  -7403794.0675 Press    =        37.9116 
Volume   =   8322436.3687 
---------------- Step     9950 ----- CPU =   2308.3319 (sec) ----------------
TotEng   =   -683405.7517 KinEng   =    581231.0218 Temp     =       300.1745 
PotEng   =  -1264636.7735 E_bond   =     70152.9247 E_angle  =    300262.4682 
E_dihed  =    142179.3486 E_impro  =      6079.4486 E_vdwl   =    -54517.3606 
E_coul   =   5675023.0226 E_long   =  -7403816.6256 Press    =        24.3012 
Volume   =   8322021.2664 
---------------- Step    10000 ----- CPU =   2319.8476 (sec) ----------------
TotEng   =   -683632.0354 KinEng   =    581295.2492 Temp     =       300.2077 
PotEng   =  -1264927.2846 E_bond   =     70077.5479 E_angle  =    299935.1577 
E_dihed  =    141889.7676 E_impro  =      6095.8690 E_vdwl   =    -54133.7889 
E_coul   =   5675088.5350 E_long   =  -7403880.3728 Press    =        33.3264 
Volume   =   8322955.2662 
Loop time of 2319.85 on 8 procs for 10000 steps with 864000 atoms

Performance: 0.745 ns/day, 32.220 hours/ns, 4.311 timesteps/s
99.7% CPU use with 8 MPI tasks x 1 OpenMP threads

MPI task timing breakdown:
Section |  min time  |  avg time  |  max time  |%varavg| %total
---------------------------------------------------------------
Pair    | 1473.6     | 1478.7     | 1488.3     |  11.1 | 63.74
Bond    | 89.182     | 91.162     | 92.778     |  12.5 |  3.93
Kspace  | 224.16     | 234.39     | 241.45     |  30.6 | 10.10
Neigh   | 209.56     | 209.7      | 209.85     |   0.6 |  9.04
Comm    | 88.961     | 91.35      | 92.214     |  12.5 |  3.94
Output  | 0.042487   | 0.044463   | 0.046612   |   0.5 |  0.00
Modify  | 204.01     | 205.51     | 209.91     |  15.6 |  8.86
Other   |            | 8.991      |            |       |  0.39

Nlocal:         108000 ave      108134 max      107850 min
Histogram: 2 0 0 1 1 0 0 2 0 2
Nghost:        96801.2 ave       96952 max       96684 min
Histogram: 1 1 1 1 1 0 2 0 0 1
Neighs:    4.05766e+07 ave 4.06861e+07 max 4.04937e+07 min
Histogram: 2 1 0 1 1 1 0 0 0 2

Total # of neighbors = 3.2461259e+08
Ave neighs/atom = 375.70902
Ave special neighs/atom = 7.431875
Neighbor list builds = 1279
Dangerous builds = 0
Total wall time: 0:38:41
Intel(R) VTune(TM) Profiler 2022.2.0 collection completed successfully. Use the "aps --report /home/ubuntu/lammps/bench/aps_result_20220704" command to generate textual and HTML reports for the profiling session.
