LAMMPS (7 Jan 2022)
  using 1 OpenMP thread(s) per MPI task
Reading data file ...
  orthogonal box = (-27.5 -38.5 -36.3646) to (27.5 38.5 36.3615)
  2 by 4 by 2 MPI processor grid
  reading atoms ...
  32000 atoms
  reading velocities ...
  32000 velocities
  scanning bonds ...
  4 = max bonds/atom
  scanning angles ...
  8 = max angles/atom
  scanning dihedrals ...
  18 = max dihedrals/atom
  scanning impropers ...
  2 = max impropers/atom
  reading bonds ...
  27723 bonds
  reading angles ...
  40467 angles
  reading dihedrals ...
  56829 dihedrals
  reading impropers ...
  1034 impropers
Finding 1-2 1-3 1-4 neighbors ...
  special bond factors lj:    0        0        0       
  special bond factors coul:  0        0        0       
     4 = max # of 1-2 neighbors
    12 = max # of 1-3 neighbors
    24 = max # of 1-4 neighbors
    26 = max # of special neighbors
  special bonds CPU = 0.005 seconds
  read_data CPU = 0.239 seconds
Replicating atoms ...
  orthogonal box = (-27.5 -38.5 -36.3646) to (137.5 192.5 181.8137)
  2 by 4 by 2 MPI processor grid
  864000 atoms
  748521 bonds
  1092609 angles
  1534383 dihedrals
  27918 impropers
Finding 1-2 1-3 1-4 neighbors ...
  special bond factors lj:    0        0        0       
  special bond factors coul:  0        0        0       
     4 = max # of 1-2 neighbors
    12 = max # of 1-3 neighbors
    24 = max # of 1-4 neighbors
    26 = max # of special neighbors
  special bonds CPU = 0.060 seconds
  replicate CPU = 0.126 seconds
Finding SHAKE clusters ...
   43659 = # of size 2 clusters
   98091 = # of size 3 clusters
   20169 = # of size 4 clusters
  114291 = # of frozen angles
  find clusters CPU = 0.028 seconds
PPPM initialization ...
  using 12-bit tables for long-range coulomb (../kspace.cpp:340)
  G vector (1/distance) = 0.25235202
  grid = 72 90 90
  stencil order = 7
  estimated absolute RMS force accuracy = 0.029803316
  estimated relative force accuracy = 8.9751802e-05
  using single precision MKL FFT
  3d grid and FFT values/proc = 67080 38880
----------------------------------------------------------
Using INTEL Package without Coprocessor.
Compiler: Intel Classic C++ 20.21.5 / Intel(R) C++ g++ 9.3 mode
SIMD compiler directives: Enabled
Precision: mixed
----------------------------------------------------------
  generated 2278 of 2278 mixed pair_coeff terms from arithmetic mixing rule
Neighbor list info ...
  update every 1 steps, delay 5 steps, check yes
  max neighbors/atom: 2000, page size: 100000
  master list distance cutoff = 12
  ghost atom cutoff = 12
  binsize = 6, bins = 28 39 37
  1 neighbor lists, perpetual/occasional/extra = 1 0 0
  (1) pair lj/charmm/coul/long/intel, perpetual
      attributes: half, newton on, intel
      pair build: half/bin/newton/intel
      stencil: half/bin/3d
      bin: intel
Setting up Verlet run ...
  Unit style    : real
  Current step  : 0
  Time step     : 2
Per MPI rank memory allocation (min/avg/max) = 611.1 | 613.8 | 616.4 Mbytes
---------------- Step        0 ----- CPU =      0.0000 (sec) ----------------
TotEng   =   -684670.9760 KinEng   =    579010.4447 Temp     =       299.0277 
PotEng   =  -1263681.4207 E_bond   =     68525.6859 E_angle  =    294877.1223 
E_dihed  =    140718.2350 E_impro  =      5764.8965 E_vdwl   =    -62312.3838 
E_coul   =   5692538.4978 E_long   =  -7403793.4743 Press    =      -148.6879 
Volume   =   8315865.9045 
---------------- Step       50 ----- CPU =      6.5463 (sec) ----------------
TotEng   =   -683945.5679 KinEng   =    580526.0859 Temp     =       299.8105 
PotEng   =  -1264471.6538 E_bond   =     66737.4156 E_angle  =    292591.4536 
E_dihed  =    141470.6187 E_impro  =      6132.4335 E_vdwl   =    -53811.1987 
E_coul   =   5686392.7814 E_long   =  -7403985.1580 Press    =       238.9259 
Volume   =   8316862.5498 
---------------- Step      100 ----- CPU =     12.5220 (sec) ----------------
TotEng   =   -682827.8985 KinEng   =    582915.2738 Temp     =       301.0443 
PotEng   =  -1265743.1723 E_bond   =     69335.3028 E_angle  =    291121.4917 
E_dihed  =    140366.2218 E_impro  =      5852.7245 E_vdwl   =    -51271.2324 
E_coul   =   5682697.0824 E_long   =  -7403844.7630 Press    =        14.5716 
Volume   =   8319656.0545 
Loop time of 12.522 on 16 procs for 100 steps with 864000 atoms

Performance: 1.380 ns/day, 17.392 hours/ns, 7.986 timesteps/s
99.2% CPU use with 16 MPI tasks x 1 OpenMP threads

MPI task timing breakdown:
Section |  min time  |  avg time  |  max time  |%varavg| %total
---------------------------------------------------------------
Pair    | 7.6509     | 7.8308     | 7.9353     |   3.2 | 62.54
Bond    | 0.4554     | 0.47312    | 0.49553    |   1.7 |  3.78
Kspace  | 1.3001     | 1.4022     | 1.5852     |   7.7 | 11.20
Neigh   | 0.96693    | 0.96914    | 0.97162    |   0.2 |  7.74
Comm    | 0.51993    | 0.53174    | 0.54851    |   1.4 |  4.25
Output  | 0.00025654 | 0.00026696 | 0.00032197 |   0.0 |  0.00
Modify  | 1.2073     | 1.2466     | 1.271      |   2.1 |  9.96
Other   |            | 0.06813    |            |       |  0.54

Nlocal:          54000 ave       54284 max       53648 min
Histogram: 1 1 0 2 4 2 2 0 1 3
Nghost:        65881.2 ave       66337 max       65444 min
Histogram: 1 2 1 2 3 1 2 2 1 1
Neighs:    2.02974e+07 ave 2.05084e+07 max 2.00558e+07 min
Histogram: 2 0 1 1 3 3 1 3 0 2

Total # of neighbors = 3.2475854e+08
Ave neighs/atom = 375.87794
Ave special neighs/atom = 7.431875
Neighbor list builds = 11
Dangerous builds = 0
Total wall time: 0:00:13
Intel(R) VTune(TM) Profiler 2022.2.0 collection completed successfully. Use the "aps --report /home/ubuntu/lammps/bench/aps_result_20220601" command to generate textual and HTML reports for the profiling session.
