LAMMPS (7 Jan 2022)
  using 1 OpenMP thread(s) per MPI task
Reading data file ...
  orthogonal box = (-27.5 -38.5 -36.3646) to (27.5 38.5 36.3615)
  1 by 1 by 1 MPI processor grid
  reading atoms ...
  32000 atoms
  reading velocities ...
  32000 velocities
  scanning bonds ...
  4 = max bonds/atom
  scanning angles ...
  8 = max angles/atom
  scanning dihedrals ...
  18 = max dihedrals/atom
  scanning impropers ...
  2 = max impropers/atom
  reading bonds ...
  27723 bonds
  reading angles ...
  40467 angles
  reading dihedrals ...
  56829 dihedrals
  reading impropers ...
  1034 impropers
Finding 1-2 1-3 1-4 neighbors ...
  special bond factors lj:    0        0        0       
  special bond factors coul:  0        0        0       
     4 = max # of 1-2 neighbors
    12 = max # of 1-3 neighbors
    24 = max # of 1-4 neighbors
    26 = max # of special neighbors
  special bonds CPU = 0.017 seconds
  read_data CPU = 0.213 seconds
Replicating atoms ...
  orthogonal box = (-27.5 -38.5 -36.3646) to (82.5 115.5 109.0876)
  1 by 1 by 1 MPI processor grid
  256000 atoms
  221784 bonds
  323736 angles
  454632 dihedrals
  8272 impropers
Finding 1-2 1-3 1-4 neighbors ...
  special bond factors lj:    0        0        0       
  special bond factors coul:  0        0        0       
     4 = max # of 1-2 neighbors
    12 = max # of 1-3 neighbors
    24 = max # of 1-4 neighbors
    26 = max # of special neighbors
  special bonds CPU = 0.129 seconds
  replicate CPU = 0.217 seconds
Finding SHAKE clusters ...
   12936 = # of size 2 clusters
   29064 = # of size 3 clusters
    5976 = # of size 4 clusters
   33864 = # of frozen angles
  find clusters CPU = 0.057 seconds
PPPM initialization ...
  using 12-bit tables for long-range coulomb (../kspace.cpp:340)
  G vector (1/distance) = 0.25045586
  grid = 45 60 60
  stencil order = 7
  estimated absolute RMS force accuracy = 0.032785255
  estimated relative force accuracy = 9.8731821e-05
  using single precision MKL FFT
  3d grid and FFT values/proc = 233428 162000
----------------------------------------------------------
Using INTEL Package without Coprocessor.
Compiler: Intel Classic C++ 20.21.5 / Intel(R) C++ g++ 9.3 mode
SIMD compiler directives: Enabled
Precision: double
----------------------------------------------------------
  generated 2278 of 2278 mixed pair_coeff terms from arithmetic mixing rule
Neighbor list info ...
  update every 1 steps, delay 5 steps, check yes
  max neighbors/atom: 2000, page size: 100000
  master list distance cutoff = 12
  ghost atom cutoff = 12
  binsize = 6, bins = 19 26 25
  1 neighbor lists, perpetual/occasional/extra = 1 0 0
  (1) pair lj/charmm/coul/long/intel, perpetual
      attributes: half, newton on, intel
      pair build: half/bin/newton/intel
      stencil: half/bin/3d
      bin: intel
Setting up Verlet run ...
  Unit style    : real
  Current step  : 0
  Time step     : 2
Per MPI rank memory allocation (min/avg/max) = 2684 | 2684 | 2684 Mbytes
---------------- Step        0 ----- CPU =      0.0000 (sec) ----------------
TotEng   =   -202863.3553 KinEng   =    171558.6503 Temp     =       299.0288 
PotEng   =   -374422.0055 E_bond   =     20303.9521 E_angle  =     87370.9937 
E_dihed  =     41694.2920 E_impro  =      1708.0927 E_vdwl   =    -18462.9073 
E_coul   =   1670251.2429 E_long   =  -2177287.6716 Press    =      -148.3946 
Volume   =   2463960.2680 
---------------- Step       50 ----- CPU =     32.8614 (sec) ----------------
TotEng   =   -202647.8132 KinEng   =    172007.9916 Temp     =       299.8120 
PotEng   =   -374655.8048 E_bond   =     19774.1147 E_angle  =     86693.3899 
E_dihed  =     41917.3547 E_impro  =      1817.0116 E_vdwl   =    -15944.9650 
E_coul   =   1668430.0521 E_long   =  -2177342.7630 Press    =       238.9757 
Volume   =   2464255.7582 
---------------- Step      100 ----- CPU =     66.3202 (sec) ----------------
TotEng   =   -202321.0214 KinEng   =    172719.8565 Temp     =       301.0528 
PotEng   =   -375040.8779 E_bond   =     20544.0496 E_angle  =     86258.0191 
E_dihed  =     41590.1330 E_impro  =      1734.1349 E_vdwl   =    -15193.5950 
E_coul   =   1667327.4775 E_long   =  -2177301.0970 Press    =        13.7797 
Volume   =   2465083.9370 
Loop time of 66.3202 on 1 procs for 100 steps with 256000 atoms

Performance: 0.261 ns/day, 92.111 hours/ns, 1.508 timesteps/s
100.0% CPU use with 1 MPI tasks x 1 OpenMP threads

MPI task timing breakdown:
Section |  min time  |  avg time  |  max time  |%varavg| %total
---------------------------------------------------------------
Pair    | 45.795     | 45.795     | 45.795     |   0.0 | 69.05
Bond    | 2.4832     | 2.4832     | 2.4832     |   0.0 |  3.74
Kspace  | 8.1709     | 8.1709     | 8.1709     |   0.0 | 12.32
Neigh   | 4.7077     | 4.7077     | 4.7077     |   0.0 |  7.10
Comm    | 1.3644     | 1.3644     | 1.3644     |   0.0 |  2.06
Output  | 0.00091742 | 0.00091742 | 0.00091742 |   0.0 |  0.00
Modify  | 3.6779     | 3.6779     | 3.6779     |   0.0 |  5.55
Other   |            | 0.1199     |            |       |  0.18

Nlocal:         256000 ave      256000 max      256000 min
Histogram: 1 0 0 0 0 0 0 0 0 0
Nghost:         163361 ave      163361 max      163361 min
Histogram: 1 0 0 0 0 0 0 0 0 0
Neighs:    9.62243e+07 ave 9.62243e+07 max 9.62243e+07 min
Histogram: 1 0 0 0 0 0 0 0 0 0

Total # of neighbors = 96224282
Ave neighs/atom = 375.8761
Ave special neighs/atom = 7.431875
Neighbor list builds = 11
Dangerous builds = 0
Total wall time: 0:01:08
Intel(R) VTune(TM) Profiler 2022.2.0 collection completed successfully. Use the "aps --report /home/ubuntu/lammps/bench/aps_result_20220601" command to generate textual and HTML reports for the profiling session.
