LAMMPS (7 Jan 2022)
  using 1 OpenMP thread(s) per MPI task
Reading data file ...
  orthogonal box = (-27.5 -38.5 -36.3646) to (27.5 38.5 36.3615)
  1 by 2 by 1 MPI processor grid
  reading atoms ...
  32000 atoms
  reading velocities ...
  32000 velocities
  scanning bonds ...
  4 = max bonds/atom
  scanning angles ...
  8 = max angles/atom
  scanning dihedrals ...
  18 = max dihedrals/atom
  scanning impropers ...
  2 = max impropers/atom
  reading bonds ...
  27723 bonds
  reading angles ...
  40467 angles
  reading dihedrals ...
  56829 dihedrals
  reading impropers ...
  1034 impropers
Finding 1-2 1-3 1-4 neighbors ...
  special bond factors lj:    0        0        0       
  special bond factors coul:  0        0        0       
     4 = max # of 1-2 neighbors
    12 = max # of 1-3 neighbors
    24 = max # of 1-4 neighbors
    26 = max # of special neighbors
  special bonds CPU = 0.009 seconds
  read_data CPU = 0.235 seconds
Finding SHAKE clusters ...
    1617 = # of size 2 clusters
    3633 = # of size 3 clusters
     747 = # of size 4 clusters
    4233 = # of frozen angles
  find clusters CPU = 0.005 seconds
PPPM initialization ...
  using 12-bit tables for long-range coulomb (../kspace.cpp:340)
  G vector (1/distance) = 0.25235202
  grid = 24 30 30
  stencil order = 7
  estimated absolute RMS force accuracy = 0.029803316
  estimated relative force accuracy = 8.9751802e-05
  using single precision MKL FFT
  3d grid and FFT values/proc = 25234 10800
----------------------------------------------------------
Using INTEL Package without Coprocessor.
Compiler: Intel Classic C++ 20.21.5 / Intel(R) C++ g++ 9.3 mode
SIMD compiler directives: Enabled
Precision: mixed
----------------------------------------------------------
  generated 2278 of 2278 mixed pair_coeff terms from arithmetic mixing rule
Neighbor list info ...
  update every 1 steps, delay 5 steps, check yes
  max neighbors/atom: 2000, page size: 100000
  master list distance cutoff = 12
  ghost atom cutoff = 12
  binsize = 6, bins = 10 13 13
  1 neighbor lists, perpetual/occasional/extra = 1 0 0
  (1) pair lj/charmm/coul/long/intel, perpetual
      attributes: half, newton on, intel
      pair build: half/bin/newton/intel
      stencil: half/bin/3d
      bin: intel
Setting up Verlet run ...
  Unit style    : real
  Current step  : 0
  Time step     : 2
Per MPI rank memory allocation (min/avg/max) = 210.3 | 211.1 | 211.9 Mbytes
---------------- Step        0 ----- CPU =      0.0000 (sec) ----------------
TotEng   =    -25358.1687 KinEng   =     21444.8313 Temp     =       299.0397 
PotEng   =    -46803.0000 E_bond   =      2537.9949 E_angle  =     10921.3721 
E_dihed  =      5211.7865 E_impro  =       213.5135 E_vdwl   =     -2307.8639 
E_coul   =    210834.7641 E_long   =   -274214.5673 Press    =      -148.6999 
Volume   =    307995.0335 
---------------- Step       50 ----- CPU =      2.0933 (sec) ----------------
TotEng   =    -25332.1215 KinEng   =     21500.5429 Temp     =       299.8166 
PotEng   =    -46832.6644 E_bond   =      2471.7216 E_angle  =     10836.5637 
E_dihed  =      5239.6281 E_impro  =       227.1121 E_vdwl   =     -1993.0544 
E_coul   =    210607.0454 E_long   =   -274221.6809 Press    =       238.8140 
Volume   =    308031.9403 
---------------- Step      100 ----- CPU =      3.7998 (sec) ----------------
TotEng   =    -25292.3427 KinEng   =     21588.2815 Temp     =       301.0400 
PotEng   =    -46880.6242 E_bond   =      2567.8450 E_angle  =     10781.8455 
E_dihed  =      5198.6683 E_impro  =       216.7632 E_vdwl   =     -1899.0496 
E_coul   =    210469.7801 E_long   =   -274216.4768 Press    =        14.3358 
Volume   =    308135.3232 
---------------- Step      150 ----- CPU =      5.4013 (sec) ----------------
TotEng   =    -25260.1489 KinEng   =     21534.2787 Temp     =       300.2870 
PotEng   =    -46794.4276 E_bond   =      2556.6796 E_angle  =     10854.0638 
E_dihed  =      5264.4395 E_impro  =       203.0093 E_vdwl   =     -2074.2811 
E_coul   =    210608.0704 E_long   =   -274206.4090 Press    =       243.9523 
Volume   =    308518.6136 
---------------- Step      200 ----- CPU =      6.9687 (sec) ----------------
TotEng   =    -25078.7483 KinEng   =     21540.8529 Temp     =       300.3787 
PotEng   =    -46619.6012 E_bond   =      2489.3759 E_angle  =     11075.6370 
E_dihed  =      5221.5829 E_impro  =       232.4444 E_vdwl   =     -2148.4962 
E_coul   =    210715.3042 E_long   =   -274205.4494 Press    =        40.7924 
Volume   =    308999.4332 
---------------- Step      250 ----- CPU =      8.5646 (sec) ----------------
TotEng   =    -24960.5132 KinEng   =     21534.1246 Temp     =       300.2848 
PotEng   =    -46494.6378 E_bond   =      2541.5985 E_angle  =     11095.1773 
E_dihed  =      5245.5234 E_impro  =       213.4714 E_vdwl   =     -2164.1616 
E_coul   =    210796.7765 E_long   =   -274223.0233 Press    =      -155.1960 
Volume   =    309392.6562 
---------------- Step      300 ----- CPU =     10.1284 (sec) ----------------
TotEng   =    -25028.3504 KinEng   =     21525.7341 Temp     =       300.1678 
PotEng   =    -46554.0844 E_bond   =      2560.3401 E_angle  =     10926.6372 
E_dihed  =      5221.2372 E_impro  =       224.3627 E_vdwl   =     -2165.8187 
E_coul   =    210887.4091 E_long   =   -274208.2521 Press    =      -380.1244 
Volume   =    309705.3333 
---------------- Step      350 ----- CPU =     11.7226 (sec) ----------------
TotEng   =    -25147.7074 KinEng   =     21597.2242 Temp     =       301.1647 
PotEng   =    -46744.9316 E_bond   =      2580.0020 E_angle  =     10956.2040 
E_dihed  =      5251.0008 E_impro  =       209.7096 E_vdwl   =     -2020.1209 
E_coul   =    210503.1699 E_long   =   -274224.8970 Press    =      -315.2560 
Volume   =    309850.7926 
---------------- Step      400 ----- CPU =     13.2850 (sec) ----------------
TotEng   =    -25304.5256 KinEng   =     21420.3277 Temp     =       298.6980 
PotEng   =    -46724.8533 E_bond   =      2538.5113 E_angle  =     10923.4641 
E_dihed  =      5218.3122 E_impro  =       216.1703 E_vdwl   =     -2028.6112 
E_coul   =    210621.5362 E_long   =   -274214.2362 Press    =       222.0439 
Volume   =    309905.2635 
---------------- Step      450 ----- CPU =     14.8761 (sec) ----------------
TotEng   =    -25350.0494 KinEng   =     21465.7630 Temp     =       299.3316 
PotEng   =    -46815.8124 E_bond   =      2496.1862 E_angle  =     10909.8974 
E_dihed  =      5267.5399 E_impro  =       223.1772 E_vdwl   =     -2179.4976 
E_coul   =    210675.9375 E_long   =   -274209.0530 Press    =       144.4534 
Volume   =    310014.7124 
---------------- Step      500 ----- CPU =     16.4369 (sec) ----------------
TotEng   =    -25123.6628 KinEng   =     21500.5275 Temp     =       299.8163 
PotEng   =    -46624.1903 E_bond   =      2590.8291 E_angle  =     10901.2090 
E_dihed  =      5235.1399 E_impro  =       218.5622 E_vdwl   =     -2201.1214 
E_coul   =    210843.4606 E_long   =   -274212.2698 Press    =      -249.9092 
Volume   =    310102.1476 
---------------- Step      550 ----- CPU =     17.9984 (sec) ----------------
TotEng   =    -24901.8331 KinEng   =     21527.0792 Temp     =       300.1866 
PotEng   =    -46428.9123 E_bond   =      2558.3608 E_angle  =     10978.5529 
E_dihed  =      5205.9853 E_impro  =       238.4292 E_vdwl   =     -2055.6794 
E_coul   =    210847.6639 E_long   =   -274202.2248 Press    =       444.2593 
Volume   =    310115.8325 
---------------- Step      600 ----- CPU =     19.5889 (sec) ----------------
TotEng   =    -24807.6031 KinEng   =     21707.8519 Temp     =       302.7074 
PotEng   =    -46515.4550 E_bond   =      2514.0954 E_angle  =     11018.2799 
E_dihed  =      5265.8980 E_impro  =       227.1203 E_vdwl   =     -2089.0013 
E_coul   =    210755.4282 E_long   =   -274207.2755 Press    =       316.3024 
Volume   =    310227.7447 
Loop time of 19.589 on 2 procs for 600 steps with 32000 atoms

Performance: 5.293 ns/day, 4.534 hours/ns, 30.629 timesteps/s
99.9% CPU use with 2 MPI tasks x 1 OpenMP threads

MPI task timing breakdown:
Section |  min time  |  avg time  |  max time  |%varavg| %total
---------------------------------------------------------------
Pair    | 13.348     | 13.365     | 13.382     |   0.5 | 68.23
Bond    | 0.76625    | 0.79073    | 0.81522    |   2.8 |  4.04
Kspace  | 1.9983     | 2.0058     | 2.0132     |   0.5 | 10.24
Neigh   | 1.6377     | 1.638      | 1.6382     |   0.0 |  8.36
Comm    | 0.44407    | 0.44502    | 0.44596    |   0.1 |  2.27
Output  | 0.00071565 | 0.00084159 | 0.00096754 |   0.0 |  0.00
Modify  | 1.2851     | 1.2857     | 1.2863     |   0.1 |  6.56
Other   |            | 0.05814    |            |       |  0.30

Nlocal:          16000 ave       16030 max       15970 min
Histogram: 1 0 0 0 0 0 0 0 0 1
Nghost:        33294.5 ave       33300 max       33289 min
Histogram: 1 0 0 0 0 0 0 0 0 1
Neighs:    5.97291e+06 ave   5.988e+06 max 5.95782e+06 min
Histogram: 1 0 0 0 0 0 0 0 0 1

Total # of neighbors = 11945821
Ave neighs/atom = 373.30691
Ave special neighs/atom = 7.431875
Neighbor list builds = 66
Dangerous builds = 0
Total wall time: 0:00:20
Intel(R) VTune(TM) Profiler 2022.2.0 collection completed successfully. Use the "aps --report /home/ubuntu/lammps/bench/aps_result_20220601" command to generate textual and HTML reports for the profiling session.
