LAMMPS (7 Jan 2022)
  using 1 OpenMP thread(s) per MPI task
Reading data file ...
  orthogonal box = (-27.5 -38.5 -36.3646) to (27.5 38.5 36.3615)
  2 by 4 by 2 MPI processor grid
  reading atoms ...
  32000 atoms
  reading velocities ...
  32000 velocities
  scanning bonds ...
  4 = max bonds/atom
  scanning angles ...
  8 = max angles/atom
  scanning dihedrals ...
  18 = max dihedrals/atom
  scanning impropers ...
  2 = max impropers/atom
  reading bonds ...
  27723 bonds
  reading angles ...
  40467 angles
  reading dihedrals ...
  56829 dihedrals
  reading impropers ...
  1034 impropers
Finding 1-2 1-3 1-4 neighbors ...
  special bond factors lj:    0        0        0       
  special bond factors coul:  0        0        0       
     4 = max # of 1-2 neighbors
    12 = max # of 1-3 neighbors
    24 = max # of 1-4 neighbors
    26 = max # of special neighbors
  special bonds CPU = 0.005 seconds
  read_data CPU = 0.242 seconds
Replicating atoms ...
  orthogonal box = (-27.5 -38.5 -36.3646) to (192.5 269.5 254.5398)
  2 by 4 by 2 MPI processor grid
  2048000 atoms
  1774272 bonds
  2589888 angles
  3637056 dihedrals
  66176 impropers
Finding 1-2 1-3 1-4 neighbors ...
  special bond factors lj:    0        0        0       
  special bond factors coul:  0        0        0       
     4 = max # of 1-2 neighbors
    12 = max # of 1-3 neighbors
    24 = max # of 1-4 neighbors
    26 = max # of special neighbors
  special bonds CPU = 0.141 seconds
  replicate CPU = 0.251 seconds
Finding SHAKE clusters ...
  103488 = # of size 2 clusters
  232512 = # of size 3 clusters
   47808 = # of size 4 clusters
  270912 = # of frozen angles
  find clusters CPU = 0.062 seconds
PPPM initialization ...
  using 12-bit tables for long-range coulomb (../kspace.cpp:340)
  G vector (1/distance) = 0.25045586
  grid = 90 120 120
  stencil order = 7
  estimated absolute RMS force accuracy = 0.032785255
  estimated relative force accuracy = 9.8731821e-05
  using single precision MKL FFT
  3d grid and FFT values/proc = 128908 86400
----------------------------------------------------------
Using INTEL Package without Coprocessor.
Compiler: Intel Classic C++ 20.21.5 / Intel(R) C++ g++ 9.3 mode
SIMD compiler directives: Enabled
Precision: mixed
----------------------------------------------------------
  generated 2278 of 2278 mixed pair_coeff terms from arithmetic mixing rule
Neighbor list info ...
  update every 1 steps, delay 5 steps, check yes
  max neighbors/atom: 2000, page size: 100000
  master list distance cutoff = 12
  ghost atom cutoff = 12
  binsize = 6, bins = 37 52 49
  1 neighbor lists, perpetual/occasional/extra = 1 0 0
  (1) pair lj/charmm/coul/long/intel, perpetual
      attributes: half, newton on, intel
      pair build: half/bin/newton/intel
      stencil: half/bin/3d
      bin: intel
Setting up Verlet run ...
  Unit style    : real
  Current step  : 0
  Time step     : 2
Per MPI rank memory allocation (min/avg/max) = 1381 | 1381 | 1381 Mbytes
---------------- Step        0 ----- CPU =      0.0000 (sec) ----------------
TotEng   =  -1622915.6799 KinEng   =   1372469.2022 Temp     =       299.0274 
PotEng   =  -2995384.8821 E_bond   =    162431.7410 E_angle  =    698967.9457 
E_dihed  =    333554.2808 E_impro  =     13664.8915 E_vdwl   =   -147703.2770 
E_coul   =  13362001.3166 E_long   = -17418301.7807 Press    =      -148.3958 
Volume   =  19711682.1440 
---------------- Step       50 ----- CPU =     14.2050 (sec) ----------------
TotEng   =  -1621183.8264 KinEng   =   1376067.7192 Temp     =       299.8115 
PotEng   =  -2997251.5456 E_bond   =    158192.9514 E_angle  =    693548.5591 
E_dihed  =    335338.8974 E_impro  =     14535.8928 E_vdwl   =   -127558.7900 
E_coul   =  13347432.8266 E_long   = -17418741.8829 Press    =       238.9880 
Volume   =  19714045.9992 
---------------- Step      100 ----- CPU =     28.1207 (sec) ----------------
TotEng   =  -1618558.0405 KinEng   =   1381768.2636 Temp     =       301.0535 
PotEng   =  -3000326.3041 E_bond   =    164353.0130 E_angle  =    690067.3537 
E_dihed  =    332721.4336 E_impro  =     13872.8902 E_vdwl   =   -121547.6933 
E_coul   =  13338616.0659 E_long   = -17418409.3672 Press    =        13.8307 
Volume   =  19720671.8853 
Loop time of 28.1207 on 16 procs for 100 steps with 2048000 atoms

Performance: 0.614 ns/day, 39.057 hours/ns, 3.556 timesteps/s
99.5% CPU use with 16 MPI tasks x 1 OpenMP threads

MPI task timing breakdown:
Section |  min time  |  avg time  |  max time  |%varavg| %total
---------------------------------------------------------------
Pair    | 17.751     | 17.921     | 18.236     |   3.0 | 63.73
Bond    | 1.121      | 1.1339     | 1.1453     |   0.6 |  4.03
Kspace  | 2.8082     | 3.1144     | 3.2853     |   7.3 | 11.08
Neigh   | 2.1457     | 2.1492     | 2.1518     |   0.1 |  7.64
Comm    | 1.0478     | 1.0697     | 1.091      |   1.8 |  3.80
Output  | 0.00052573 | 0.00054503 | 0.00059873 |   0.0 |  0.00
Modify  | 2.5289     | 2.5767     | 2.625      |   2.5 |  9.16
Other   |            | 0.1556     |            |       |  0.55

Nlocal:         128000 ave      128001 max      127999 min
Histogram: 4 0 0 0 0 8 0 0 0 4
Nghost:         109937 ave      109938 max      109936 min
Histogram: 4 0 0 0 0 8 0 0 0 4
Neighs:    4.81121e+07 ave 4.81931e+07 max 4.80281e+07 min
Histogram: 4 0 0 4 0 0 4 0 0 4

Total # of neighbors = 7.6979428e+08
Ave neighs/atom = 375.87611
Ave special neighs/atom = 7.431875
Neighbor list builds = 11
Dangerous builds = 0
Total wall time: 0:00:29
Intel(R) VTune(TM) Profiler 2022.2.0 collection completed successfully. Use the "aps --report /home/ubuntu/lammps/bench/aps_result_20220601" command to generate textual and HTML reports for the profiling session.
