LAMMPS (7 Jan 2022)
  using 1 OpenMP thread(s) per MPI task
Reading data file ...
  orthogonal box = (-27.5 -38.5 -36.3646) to (27.5 38.5 36.3615)
  2 by 4 by 4 MPI processor grid
  reading atoms ...
  32000 atoms
  reading velocities ...
  32000 velocities
  scanning bonds ...
  4 = max bonds/atom
  scanning angles ...
  8 = max angles/atom
  scanning dihedrals ...
  18 = max dihedrals/atom
  scanning impropers ...
  2 = max impropers/atom
  reading bonds ...
  27723 bonds
  reading angles ...
  40467 angles
  reading dihedrals ...
  56829 dihedrals
  reading impropers ...
  1034 impropers
Finding 1-2 1-3 1-4 neighbors ...
  special bond factors lj:    0        0        0       
  special bond factors coul:  0        0        0       
     4 = max # of 1-2 neighbors
    12 = max # of 1-3 neighbors
    24 = max # of 1-4 neighbors
    26 = max # of special neighbors
  special bonds CPU = 0.004 seconds
  read_data CPU = 0.495 seconds
Replicating atoms ...
  orthogonal box = (-27.5 -38.5 -36.3646) to (82.5 115.5 109.0876)
  2 by 4 by 4 MPI processor grid
  256000 atoms
  221784 bonds
  323736 angles
  454632 dihedrals
  8272 impropers
Finding 1-2 1-3 1-4 neighbors ...
  special bond factors lj:    0        0        0       
  special bond factors coul:  0        0        0       
     4 = max # of 1-2 neighbors
    12 = max # of 1-3 neighbors
    24 = max # of 1-4 neighbors
    26 = max # of special neighbors
  special bonds CPU = 0.011 seconds
  replicate CPU = 0.057 seconds
Finding SHAKE clusters ...
   12936 = # of size 2 clusters
   29064 = # of size 3 clusters
    5976 = # of size 4 clusters
   33864 = # of frozen angles
  find clusters CPU = 0.019 seconds
PPPM initialization ...
  using 12-bit tables for long-range coulomb (../kspace.cpp:340)
  G vector (1/distance) = 0.25045586
  grid = 45 60 60
  stencil order = 7
  estimated absolute RMS force accuracy = 0.032785255
  estimated relative force accuracy = 9.8731821e-05
  using single precision MKL FFT
  3d grid and FFT values/proc = 14520 5400
----------------------------------------------------------
Using INTEL Package without Coprocessor.
Compiler: Intel Classic C++ 20.21.5 / Intel(R) C++ g++ 9.3 mode
SIMD compiler directives: Enabled
Precision: mixed
----------------------------------------------------------
  generated 2278 of 2278 mixed pair_coeff terms from arithmetic mixing rule
Neighbor list info ...
  update every 1 steps, delay 5 steps, check yes
  max neighbors/atom: 2000, page size: 100000
  master list distance cutoff = 12
  ghost atom cutoff = 12
  binsize = 6, bins = 19 26 25
  1 neighbor lists, perpetual/occasional/extra = 1 0 0
  (1) pair lj/charmm/coul/long/intel, perpetual
      attributes: half, newton on, intel
      pair build: half/bin/newton/intel
      stencil: half/bin/3d
      bin: intel
Setting up Verlet run ...
  Unit style    : real
  Current step  : 0
  Time step     : 2
Per MPI rank memory allocation (min/avg/max) = 106.8 | 107.3 | 108.4 Mbytes
---------------- Step        0 ----- CPU =      0.0000 (sec) ----------------
TotEng   =   -202864.5379 KinEng   =    171558.6503 Temp     =       299.0288 
PotEng   =   -374423.1882 E_bond   =     20303.9370 E_angle  =     87370.9630 
E_dihed  =     41694.2900 E_impro  =      1708.1116 E_vdwl   =    -18462.9090 
E_coul   =   1670250.1020 E_long   =  -2177287.6827 Press    =      -148.4154 
Volume   =   2463960.2680 
---------------- Step       50 ----- CPU =      1.9063 (sec) ----------------
TotEng   =   -202648.8510 KinEng   =    172008.0168 Temp     =       299.8121 
PotEng   =   -374656.8678 E_bond   =     19774.0816 E_angle  =     86693.3746 
E_dihed  =     41917.3557 E_impro  =      1816.9955 E_vdwl   =    -15944.9402 
E_coul   =   1668429.0306 E_long   =  -2177342.7656 Press    =       238.9831 
Volume   =   2464255.7507 
---------------- Step      100 ----- CPU =      3.8255 (sec) ----------------
TotEng   =   -202322.0181 KinEng   =    172719.9233 Temp     =       301.0529 
PotEng   =   -375041.9414 E_bond   =     20544.0320 E_angle  =     86258.0075 
E_dihed  =     41590.1048 E_impro  =      1734.1211 E_vdwl   =    -15193.5468 
E_coul   =   1667326.5236 E_long   =  -2177301.1836 Press    =        13.7557 
Volume   =   2465083.9295 
Loop time of 3.82555 on 32 procs for 100 steps with 256000 atoms

Performance: 4.517 ns/day, 5.313 hours/ns, 26.140 timesteps/s
86.7% CPU use with 32 MPI tasks x 1 OpenMP threads

MPI task timing breakdown:
Section |  min time  |  avg time  |  max time  |%varavg| %total
---------------------------------------------------------------
Pair    | 1.1294     | 1.3209     | 2.3442     |  16.8 | 34.53
Bond    | 0.067519   | 0.078711   | 0.16119    |   5.5 |  2.06
Kspace  | 0.50275    | 1.6478     | 1.8374     |  17.0 | 43.07
Neigh   | 0.31904    | 0.31986    | 0.32086    |   0.1 |  8.36
Comm    | 0.14435    | 0.20811    | 0.2555     |   8.0 |  5.44
Output  | 0.00012031 | 0.00012345 | 0.00019285 |   0.0 |  0.00
Modify  | 0.20101    | 0.23144    | 0.24626    |   2.2 |  6.05
Other   |            | 0.01861    |            |       |  0.49

Nlocal:           8000 ave        8143 max        7934 min
Histogram: 8 16 0 0 0 0 0 0 0 8
Nghost:        22733.8 ave       22767 max       22695 min
Histogram: 8 0 0 0 0 12 4 0 0 8
Neighs:    3.00701e+06 ave 3.10773e+06 max 2.95574e+06 min
Histogram: 8 8 8 0 0 0 0 0 0 8

Total # of neighbors = 96224282
Ave neighs/atom = 375.8761
Ave special neighs/atom = 7.431875
Neighbor list builds = 11
Dangerous builds = 0
Total wall time: 0:00:04
Intel(R) VTune(TM) Profiler 2022.2.0 collection completed successfully. Use the "aps --report /home/ubuntu/lammps/bench/aps_result_20220526" command to generate textual and HTML reports for the profiling session.
