LAMMPS (7 Jan 2022)
  using 1 OpenMP thread(s) per MPI task
Reading data file ...
  orthogonal box = (-27.5 -38.5 -36.3646) to (27.5 38.5 36.3615)
  1 by 2 by 2 MPI processor grid
  reading atoms ...
  32000 atoms
  reading velocities ...
  32000 velocities
  scanning bonds ...
  4 = max bonds/atom
  scanning angles ...
  8 = max angles/atom
  scanning dihedrals ...
  18 = max dihedrals/atom
  scanning impropers ...
  2 = max impropers/atom
  reading bonds ...
  27723 bonds
  reading angles ...
  40467 angles
  reading dihedrals ...
  56829 dihedrals
  reading impropers ...
  1034 impropers
Finding 1-2 1-3 1-4 neighbors ...
  special bond factors lj:    0        0        0       
  special bond factors coul:  0        0        0       
     4 = max # of 1-2 neighbors
    12 = max # of 1-3 neighbors
    24 = max # of 1-4 neighbors
    26 = max # of special neighbors
  special bonds CPU = 0.006 seconds
  read_data CPU = 0.217 seconds
Replicating atoms ...
  orthogonal box = (-27.5 -38.5 -36.3646) to (192.5 269.5 254.5398)
  1 by 2 by 2 MPI processor grid
  2048000 atoms
  1774272 bonds
  2589888 angles
  3637056 dihedrals
  66176 impropers
Finding 1-2 1-3 1-4 neighbors ...
  special bond factors lj:    0        0        0       
  special bond factors coul:  0        0        0       
     4 = max # of 1-2 neighbors
    12 = max # of 1-3 neighbors
    24 = max # of 1-4 neighbors
    26 = max # of special neighbors
  special bonds CPU = 0.351 seconds
  replicate CPU = 0.605 seconds
Finding SHAKE clusters ...
  103488 = # of size 2 clusters
  232512 = # of size 3 clusters
   47808 = # of size 4 clusters
  270912 = # of frozen angles
  find clusters CPU = 0.157 seconds
PPPM initialization ...
  using 12-bit tables for long-range coulomb (../kspace.cpp:340)
  G vector (1/distance) = 0.25045586
  grid = 90 120 120
  stencil order = 7
  estimated absolute RMS force accuracy = 0.032785255
  estimated relative force accuracy = 9.8731821e-05
  using single precision MKL FFT
  3d grid and FFT values/proc = 435433 324000
----------------------------------------------------------
Using INTEL Package without Coprocessor.
Compiler: Intel Classic C++ 20.21.5 / Intel(R) C++ g++ 9.3 mode
SIMD compiler directives: Enabled
Precision: mixed
----------------------------------------------------------
  generated 2278 of 2278 mixed pair_coeff terms from arithmetic mixing rule
Neighbor list info ...
  update every 1 steps, delay 5 steps, check yes
  max neighbors/atom: 2000, page size: 100000
  master list distance cutoff = 12
  ghost atom cutoff = 12
  binsize = 6, bins = 37 52 49
  1 neighbor lists, perpetual/occasional/extra = 1 0 0
  (1) pair lj/charmm/coul/long/intel, perpetual
      attributes: half, newton on, intel
      pair build: half/bin/newton/intel
      stencil: half/bin/3d
      bin: intel
Setting up Verlet run ...
  Unit style    : real
  Current step  : 0
  Time step     : 2
Per MPI rank memory allocation (min/avg/max) = 5275 | 5275 | 5275 Mbytes
---------------- Step        0 ----- CPU =      0.0000 (sec) ----------------
TotEng   =  -1622915.6807 KinEng   =   1372469.2022 Temp     =       299.0274 
PotEng   =  -2995384.8829 E_bond   =    162431.7410 E_angle  =    698967.9457 
E_dihed  =    333554.2808 E_impro  =     13664.8915 E_vdwl   =   -147703.2770 
E_coul   =  13362001.3159 E_long   = -17418301.7808 Press    =      -148.3958 
Volume   =  19711682.1440 
---------------- Step       50 ----- CPU =     52.7870 (sec) ----------------
TotEng   =  -1621183.9126 KinEng   =   1376067.6303 Temp     =       299.8114 
PotEng   =  -2997251.5430 E_bond   =    158193.0898 E_angle  =    693548.5177 
E_dihed  =    335338.8870 E_impro  =     14535.9409 E_vdwl   =   -127558.7809 
E_coul   =  13347432.6927 E_long   = -17418741.8903 Press    =       238.9850 
Volume   =  19714046.0006 
---------------- Step      100 ----- CPU =    106.5937 (sec) ----------------
TotEng   =  -1618557.7039 KinEng   =   1381768.5543 Temp     =       301.0535 
PotEng   =  -3000326.2582 E_bond   =    164353.1719 E_angle  =    690067.2412 
E_dihed  =    332721.4500 E_impro  =     13872.8639 E_vdwl   =   -121547.6825 
E_coul   =  13338615.9772 E_long   = -17418409.2797 Press    =        13.8303 
Volume   =  19720671.8929 
---------------- Step      150 ----- CPU =    160.5636 (sec) ----------------
TotEng   =  -1616498.1477 KinEng   =   1378029.0816 Temp     =       300.2388 
PotEng   =  -2994527.2293 E_bond   =    163634.8250 E_angle  =    694683.7040 
E_dihed  =    336935.9487 E_impro  =     12996.8135 E_vdwl   =   -132627.6370 
E_coul   =  13347654.1799 E_long   = -17417805.0634 Press    =       245.4959 
Volume   =  19745198.5287 
---------------- Step      200 ----- CPU =    214.6108 (sec) ----------------
TotEng   =  -1605084.8796 KinEng   =   1377868.8211 Temp     =       300.2039 
PotEng   =  -2982953.7007 E_bond   =    159327.1838 E_angle  =    708810.0887 
E_dihed  =    334154.8600 E_impro  =     14881.3045 E_vdwl   =   -137566.2668 
E_coul   =  13355397.1937 E_long   = -17417958.0646 Press    =        45.4733 
Volume   =  19775932.1633 
---------------- Step      250 ----- CPU =    268.7675 (sec) ----------------
TotEng   =  -1597193.2924 KinEng   =   1381141.8808 Temp     =       300.9170 
PotEng   =  -2978335.1731 E_bond   =    162680.1498 E_angle  =    710414.8099 
E_dihed  =    335622.0394 E_impro  =     13602.4129 E_vdwl   =   -136283.8414 
E_coul   =  13354602.3681 E_long   = -17418973.1119 Press    =      -138.7534 
Volume   =  19801213.3139 
---------------- Step      300 ----- CPU =    321.8790 (sec) ----------------
TotEng   =  -1602536.5531 KinEng   =   1372913.4883 Temp     =       299.1242 
PotEng   =  -2975450.0415 E_bond   =    163834.4322 E_angle  =    698874.4224 
E_dihed  =    334182.4591 E_impro  =     14276.9602 E_vdwl   =   -143312.8822 
E_coul   =  13374152.8238 E_long   = -17417458.2570 Press    =      -415.1885 
Volume   =  19820478.3619 
---------------- Step      350 ----- CPU =    377.3721 (sec) ----------------
TotEng   =  -1612345.0888 KinEng   =   1378182.4135 Temp     =       300.2722 
PotEng   =  -2990527.5023 E_bond   =    164633.7276 E_angle  =    700466.4895 
E_dihed  =    336352.8519 E_impro  =     13327.6366 E_vdwl   =   -140083.2850 
E_coul   =  13352470.3749 E_long   = -17417695.2978 Press    =      -427.1779 
Volume   =  19828213.2677 
---------------- Step      400 ----- CPU =    431.8104 (sec) ----------------
TotEng   =  -1620734.9863 KinEng   =   1371991.8659 Temp     =       298.9234 
PotEng   =  -2992726.8522 E_bond   =    161994.5797 E_angle  =    698088.0199 
E_dihed  =    334783.7684 E_impro  =     14000.4629 E_vdwl   =   -132621.1631 
E_coul   =  13349345.6860 E_long   = -17418318.2060 Press    =       150.4423 
Volume   =  19826981.3318 
---------------- Step      450 ----- CPU =    486.3164 (sec) ----------------
TotEng   =  -1622110.9086 KinEng   =   1372258.9028 Temp     =       298.9816 
PotEng   =  -2994369.8113 E_bond   =    159567.1485 E_angle  =    697127.1484 
E_dihed  =    337189.0503 E_impro  =     14352.6104 E_vdwl   =   -135923.1498 
E_coul   =  13350804.1478 E_long   = -17417486.7669 Press    =       229.7476 
Volume   =  19824652.4355 
---------------- Step      500 ----- CPU =    541.9094 (sec) ----------------
TotEng   =  -1605500.3352 KinEng   =   1376370.2926 Temp     =       299.8774 
PotEng   =  -2981870.6278 E_bond   =    164843.2519 E_angle  =    698055.0043 
E_dihed  =    336869.3205 E_impro  =     14107.8100 E_vdwl   =   -133043.6271 
E_coul   =  13355031.8254 E_long   = -17417734.2130 Press    =      -161.6205 
Volume   =  19824241.3702 
---------------- Step      550 ----- CPU =    597.5601 (sec) ----------------
TotEng   =  -1589396.2306 KinEng   =   1388334.4263 Temp     =       302.4841 
PotEng   =  -2977730.6568 E_bond   =    162629.7640 E_angle  =    701424.4779 
E_dihed  =    333503.0688 E_impro  =     14822.9129 E_vdwl   =   -128281.2799 
E_coul   =  13355973.3223 E_long   = -17417802.9228 Press    =       408.8993 
Volume   =  19830759.8247 
---------------- Step      600 ----- CPU =    653.2176 (sec) ----------------
TotEng   =  -1589625.5768 KinEng   =   1387613.2462 Temp     =       302.3270 
PotEng   =  -2977238.8231 E_bond   =    163474.4533 E_angle  =    704275.9042 
E_dihed  =    336184.3831 E_impro  =     14190.8235 E_vdwl   =   -141373.1329 
E_coul   =  13363942.1395 E_long   = -17417933.3937 Press    =        19.3918 
Volume   =  19847399.0147 
---------------- Step      650 ----- CPU =    708.8561 (sec) ----------------
TotEng   =  -1603554.2581 KinEng   =   1380041.7185 Temp     =       300.6773 
PotEng   =  -2983595.9766 E_bond   =    162071.2231 E_angle  =    693035.2024 
E_dihed  =    335943.1980 E_impro  =     13654.7940 E_vdwl   =   -137371.6108 
E_coul   =  13367161.9162 E_long   = -17418090.6995 Press    =      -117.7373 
Volume   =  19859463.2508 
---------------- Step      700 ----- CPU =    763.4076 (sec) ----------------
TotEng   =  -1612787.7402 KinEng   =   1374634.5117 Temp     =       299.4992 
PotEng   =  -2987422.2518 E_bond   =    159917.2520 E_angle  =    699461.7634 
E_dihed  =    335730.0863 E_impro  =     13894.0197 E_vdwl   =   -139956.2886 
E_coul   =  13361582.4848 E_long   = -17418051.5695 Press    =       101.6941 
Volume   =  19868171.1680 
---------------- Step      750 ----- CPU =    819.1000 (sec) ----------------
TotEng   =  -1612665.6917 KinEng   =   1369097.7391 Temp     =       298.2929 
PotEng   =  -2981763.4309 E_bond   =    163513.2123 E_angle  =    703945.6014 
E_dihed  =    337023.2958 E_impro  =     13557.5063 E_vdwl   =   -136838.2105 
E_coul   =  13355212.8228 E_long   = -17418177.6590 Press    =       119.0707 
Volume   =  19871927.9549 
---------------- Step      800 ----- CPU =    874.8751 (sec) ----------------
TotEng   =  -1606150.0753 KinEng   =   1376069.7362 Temp     =       299.8119 
PotEng   =  -2982219.8115 E_bond   =    161455.5861 E_angle  =    704094.9835 
E_dihed  =    337911.7423 E_impro  =     14103.8513 E_vdwl   =   -134578.3510 
E_coul   =  13352544.9052 E_long   = -17417752.5288 Press    =        21.2299 
Volume   =  19870021.4800 
---------------- Step      850 ----- CPU =    930.5943 (sec) ----------------
TotEng   =  -1597016.4802 KinEng   =   1380699.2161 Temp     =       300.8206 
PotEng   =  -2977715.6963 E_bond   =    162600.7937 E_angle  =    703438.4715 
E_dihed  =    337405.7518 E_impro  =     14144.5809 E_vdwl   =   -133643.1517 
E_coul   =  13356089.6342 E_long   = -17417751.7767 Press    =        81.3245 
Volume   =  19863191.8141 
---------------- Step      900 ----- CPU =    985.2405 (sec) ----------------
TotEng   =  -1593888.3497 KinEng   =   1380077.6009 Temp     =       300.6851 
PotEng   =  -2973965.9506 E_bond   =    161801.5158 E_angle  =    703507.7461 
E_dihed  =    338688.7339 E_impro  =     15073.5835 E_vdwl   =   -131634.3630 
E_coul   =  13356310.6887 E_long   = -17417713.8556 Press    =       172.0705 
Volume   =  19852128.8928 
---------------- Step      950 ----- CPU =   1041.0373 (sec) ----------------
TotEng   =  -1598480.5300 KinEng   =   1376462.2581 Temp     =       299.8974 
PotEng   =  -2974942.7880 E_bond   =    163624.3073 E_angle  =    706730.5953 
E_dihed  =    338230.3178 E_impro  =     14979.2631 E_vdwl   =   -135004.5126 
E_coul   =  13354062.6228 E_long   = -17417565.3817 Press    =       -94.1754 
Volume   =  19840518.4733 
---------------- Step     1000 ----- CPU =   1096.9468 (sec) ----------------
TotEng   =  -1607362.4037 KinEng   =   1374387.7005 Temp     =       299.4454 
PotEng   =  -2981750.1042 E_bond   =    163931.5388 E_angle  =    704371.5071 
E_dihed  =    336280.0800 E_impro  =     14077.4174 E_vdwl   =   -136150.3218 
E_coul   =  13353693.3586 E_long   = -17417953.6843 Press    =        -3.2436 
Volume   =  19830597.6007 
---------------- Step     1050 ----- CPU =   1152.6956 (sec) ----------------
TotEng   =  -1613139.5854 KinEng   =   1374509.8535 Temp     =       299.4720 
PotEng   =  -2987649.4388 E_bond   =    162159.2987 E_angle  =    702021.0790 
E_dihed  =    335716.4050 E_impro  =     14238.6201 E_vdwl   =   -133774.7108 
E_coul   =  13349853.2488 E_long   = -17417863.3796 Press    =      -133.3995 
Volume   =  19821572.8350 
---------------- Step     1100 ----- CPU =   1208.5374 (sec) ----------------
TotEng   =  -1611581.2817 KinEng   =   1373665.3650 Temp     =       299.2881 
PotEng   =  -2985246.6468 E_bond   =    163087.8055 E_angle  =    703570.4094 
E_dihed  =    336478.4903 E_impro  =     14628.2753 E_vdwl   =   -134908.8894 
E_coul   =  13350105.8400 E_long   = -17418208.5779 Press    =       163.5898 
Volume   =  19811409.6378 
---------------- Step     1150 ----- CPU =   1264.5109 (sec) ----------------
TotEng   =  -1605679.5693 KinEng   =   1378872.4594 Temp     =       300.4226 
PotEng   =  -2984552.0287 E_bond   =    164524.4198 E_angle  =    700902.3619 
E_dihed  =    336929.5102 E_impro  =     14236.6931 E_vdwl   =   -132740.1709 
E_coul   =  13349716.6524 E_long   = -17418121.4952 Press    =       101.8709 
Volume   =  19801626.4606 
---------------- Step     1200 ----- CPU =   1320.4197 (sec) ----------------
TotEng   =  -1600964.9992 KinEng   =   1379945.4501 Temp     =       300.6563 
PotEng   =  -2980910.4493 E_bond   =    164997.8077 E_angle  =    702317.3424 
E_dihed  =    337166.6999 E_impro  =     14360.1847 E_vdwl   =   -133244.4513 
E_coul   =  13351607.4019 E_long   = -17418115.4346 Press    =         1.7208 
Volume   =  19794742.6258 
---------------- Step     1250 ----- CPU =   1375.3724 (sec) ----------------
TotEng   =  -1602452.4232 KinEng   =   1378185.8965 Temp     =       300.2730 
PotEng   =  -2980638.3197 E_bond   =    163674.9586 E_angle  =    703669.9533 
E_dihed  =    336906.6719 E_impro  =     14363.5338 E_vdwl   =   -131388.0742 
E_coul   =  13350185.3187 E_long   = -17418050.6819 Press    =       103.8899 
Volume   =  19794198.0284 
---------------- Step     1300 ----- CPU =   1431.3012 (sec) ----------------
TotEng   =  -1608436.7769 KinEng   =   1377286.2028 Temp     =       300.0769 
PotEng   =  -2985722.9797 E_bond   =    164925.0686 E_angle  =    701361.6337 
E_dihed  =    336567.0933 E_impro  =     14478.5808 E_vdwl   =   -136857.4950 
E_coul   =  13352087.6942 E_long   = -17418285.5554 Press    =      -108.9994 
Volume   =  19797042.5089 
---------------- Step     1350 ----- CPU =   1487.3744 (sec) ----------------
TotEng   =  -1611777.2613 KinEng   =   1373504.1912 Temp     =       299.2529 
PotEng   =  -2985281.4525 E_bond   =    164536.7748 E_angle  =    701597.5771 
E_dihed  =    336852.4107 E_impro  =     14454.0874 E_vdwl   =   -134108.3392 
E_coul   =  13349166.4558 E_long   = -17417780.4192 Press    =       -53.7665 
Volume   =  19801467.4976 
---------------- Step     1400 ----- CPU =   1542.3986 (sec) ----------------
TotEng   =  -1610049.3069 KinEng   =   1375757.2832 Temp     =       299.7438 
PotEng   =  -2985806.5901 E_bond   =    163798.6447 E_angle  =    702550.8941 
E_dihed  =    337217.4717 E_impro  =     14286.9236 E_vdwl   =   -134964.4540 
E_coul   =  13349513.1955 E_long   = -17418209.2657 Press    =       -18.5239 
Volume   =  19805413.6288 
---------------- Step     1450 ----- CPU =   1598.4560 (sec) ----------------
TotEng   =  -1605316.0807 KinEng   =   1378326.7974 Temp     =       300.3037 
PotEng   =  -2983642.8781 E_bond   =    164413.6606 E_angle  =    703273.0510 
E_dihed  =    337239.0283 E_impro  =     14385.5350 E_vdwl   =   -133434.7993 
E_coul   =  13348553.6709 E_long   = -17418073.0245 Press    =       -62.3001 
Volume   =  19806714.5151 
---------------- Step     1500 ----- CPU =   1654.5041 (sec) ----------------
TotEng   =  -1602634.2771 KinEng   =   1379041.3380 Temp     =       300.4593 
PotEng   =  -2981675.6151 E_bond   =    164298.7383 E_angle  =    703026.9580 
E_dihed  =    337530.4563 E_impro  =     14427.0882 E_vdwl   =   -133315.4079 
E_coul   =  13350281.8386 E_long   = -17417925.2867 Press    =       -61.3910 
Volume   =  19807775.7040 
---------------- Step     1550 ----- CPU =   1709.3895 (sec) ----------------
TotEng   =  -1603366.9386 KinEng   =   1377355.9538 Temp     =       300.0921 
PotEng   =  -2980722.8925 E_bond   =    163725.9859 E_angle  =    705427.4926 
E_dihed  =    337040.5294 E_impro  =     14573.8320 E_vdwl   =   -134641.9607 
E_coul   =  13351139.3629 E_long   = -17417988.1347 Press    =        35.8253 
Volume   =  19808762.2266 
---------------- Step     1600 ----- CPU =   1765.4922 (sec) ----------------
TotEng   =  -1606373.3757 KinEng   =   1377476.7326 Temp     =       300.1185 
PotEng   =  -2983850.1083 E_bond   =    164110.3419 E_angle  =    702699.8053 
E_dihed  =    336739.0799 E_impro  =     13979.4455 E_vdwl   =   -134342.3284 
E_coul   =  13351033.9744 E_long   = -17418070.4268 Press    =        55.5797 
Volume   =  19807678.0837 
---------------- Step     1650 ----- CPU =   1821.5661 (sec) ----------------
TotEng   =  -1609086.5541 KinEng   =   1376709.0996 Temp     =       299.9512 
PotEng   =  -2985795.6537 E_bond   =    164146.3359 E_angle  =    702641.9586 
E_dihed  =    336756.4493 E_impro  =     14164.0193 E_vdwl   =   -132930.0683 
E_coul   =  13347490.7327 E_long   = -17418065.0813 Press    =       -34.7649 
Volume   =  19805993.1510 
---------------- Step     1700 ----- CPU =   1876.4452 (sec) ----------------
TotEng   =  -1609185.5803 KinEng   =   1377326.3032 Temp     =       300.0857 
PotEng   =  -2986511.8835 E_bond   =    163821.4142 E_angle  =    704683.7528 
E_dihed  =    336369.6841 E_impro  =     14333.2958 E_vdwl   =   -133858.8803 
E_coul   =  13346299.0471 E_long   = -17418160.1971 Press    =        30.9497 
Volume   =  19804266.5329 
---------------- Step     1750 ----- CPU =   1932.5698 (sec) ----------------
TotEng   =  -1607258.6433 KinEng   =   1378626.2189 Temp     =       300.3689 
PotEng   =  -2985884.8622 E_bond   =    164139.7769 E_angle  =    704231.9484 
E_dihed  =    336768.6567 E_impro  =     14447.7011 E_vdwl   =   -133937.6899 
E_coul   =  13346618.8359 E_long   = -17418154.0914 Press    =       -17.3812 
Volume   =  19803191.5617 
---------------- Step     1800 ----- CPU =   1988.6027 (sec) ----------------
TotEng   =  -1606197.0554 KinEng   =   1377001.9529 Temp     =       300.0150 
PotEng   =  -2983199.0082 E_bond   =    164426.9925 E_angle  =    704317.5335 
E_dihed  =    337273.8944 E_impro  =     14281.1122 E_vdwl   =   -132191.4940 
E_coul   =  13346847.9452 E_long   = -17418154.9920 Press    =      -109.0691 
Volume   =  19803500.3256 
---------------- Step     1850 ----- CPU =   2043.5734 (sec) ----------------
TotEng   =  -1606886.2383 KinEng   =   1376510.2672 Temp     =       299.9079 
PotEng   =  -2983396.5056 E_bond   =    163911.6236 E_angle  =    704970.6061 
E_dihed  =    337097.5763 E_impro  =     14112.0083 E_vdwl   =   -134221.6905 
E_coul   =  13348931.7739 E_long   = -17418198.4032 Press    =        95.3030 
Volume   =  19804363.3574 
---------------- Step     1900 ----- CPU =   2099.6887 (sec) ----------------
TotEng   =  -1607939.6904 KinEng   =   1375729.3826 Temp     =       299.7378 
PotEng   =  -2983669.0731 E_bond   =    164612.8195 E_angle  =    704367.9645 
E_dihed  =    337056.5841 E_impro  =     14381.6294 E_vdwl   =   -133467.1551 
E_coul   =  13347512.7777 E_long   = -17418133.6932 Press    =       -42.9631 
Volume   =  19805984.5030 
---------------- Step     1950 ----- CPU =   2155.7664 (sec) ----------------
TotEng   =  -1608256.2344 KinEng   =   1375726.9801 Temp     =       299.7372 
PotEng   =  -2983983.2146 E_bond   =    163809.7400 E_angle  =    705212.7151 
E_dihed  =    337339.4479 E_impro  =     14318.0486 E_vdwl   =   -134934.7697 
E_coul   =  13348401.6204 E_long   = -17418130.0169 Press    =       -86.3144 
Volume   =  19807179.0994 
---------------- Step     2000 ----- CPU =   2211.8782 (sec) ----------------
TotEng   =  -1607530.6664 KinEng   =   1376641.4823 Temp     =       299.9365 
PotEng   =  -2984172.1486 E_bond   =    164680.0330 E_angle  =    704706.7407 
E_dihed  =    337015.7980 E_impro  =     14330.8033 E_vdwl   =   -133969.5574 
E_coul   =  13347112.5017 E_long   = -17418048.4679 Press    =       -66.7447 
Volume   =  19806614.8176 
---------------- Step     2050 ----- CPU =   2266.8844 (sec) ----------------
TotEng   =  -1606362.8010 KinEng   =   1377134.1716 Temp     =       300.0438 
PotEng   =  -2983496.9725 E_bond   =    164189.9699 E_angle  =    705205.8066 
E_dihed  =    337184.3023 E_impro  =     14230.3510 E_vdwl   =   -133224.1278 
E_coul   =  13347093.8919 E_long   = -17418177.1664 Press    =         3.0502 
Volume   =  19805613.1823 
---------------- Step     2100 ----- CPU =   2323.0337 (sec) ----------------
TotEng   =  -1606193.5992 KinEng   =   1377037.2470 Temp     =       300.0227 
PotEng   =  -2983230.8462 E_bond   =    164572.3187 E_angle  =    704874.1361 
E_dihed  =    337712.1329 E_impro  =     14313.8227 E_vdwl   =   -133663.6950 
E_coul   =  13347006.7094 E_long   = -17418046.2710 Press    =       -71.8288 
Volume   =  19804929.3296 
---------------- Step     2150 ----- CPU =   2379.1133 (sec) ----------------
TotEng   =  -1607042.0333 KinEng   =   1378512.8817 Temp     =       300.3442 
PotEng   =  -2985554.9150 E_bond   =    164129.5380 E_angle  =    704600.5965 
E_dihed  =    337525.6294 E_impro  =     14351.4277 E_vdwl   =   -134384.4771 
E_coul   =  13346399.2118 E_long   = -17418176.8413 Press    =       -18.7120 
Volume   =  19803931.2255 
---------------- Step     2200 ----- CPU =   2434.1401 (sec) ----------------
TotEng   =  -1608326.4325 KinEng   =   1377286.4774 Temp     =       300.0770 
PotEng   =  -2985612.9098 E_bond   =    164355.0132 E_angle  =    705318.7838 
E_dihed  =    337064.1124 E_impro  =     14440.9819 E_vdwl   =   -135275.9499 
E_coul   =  13346463.0291 E_long   = -17417978.8803 Press    =      -125.7126 
Volume   =  19802179.4496 
---------------- Step     2250 ----- CPU =   2490.3163 (sec) ----------------
TotEng   =  -1609166.3564 KinEng   =   1376091.8828 Temp     =       299.8167 
PotEng   =  -2985258.2392 E_bond   =    164425.0037 E_angle  =    705737.7196 
E_dihed  =    336464.7544 E_impro  =     14272.6786 E_vdwl   =   -133712.2676 
E_coul   =  13345684.0748 E_long   = -17418130.2027 Press    =         6.7248 
Volume   =  19799400.7151 
---------------- Step     2300 ----- CPU =   2546.3950 (sec) ----------------
TotEng   =  -1609361.9774 KinEng   =   1376468.7574 Temp     =       299.8988 
PotEng   =  -2985830.7348 E_bond   =    164130.1772 E_angle  =    705230.1356 
E_dihed  =    336222.9997 E_impro  =     14270.6673 E_vdwl   =   -133969.3923 
E_coul   =  13346426.8689 E_long   = -17418142.1913 Press    =       -15.1439 
Volume   =  19797213.2480 
---------------- Step     2350 ----- CPU =   2601.4167 (sec) ----------------
TotEng   =  -1608675.5095 KinEng   =   1375946.5375 Temp     =       299.7851 
PotEng   =  -2984622.0470 E_bond   =    164663.0047 E_angle  =    705845.8959 
E_dihed  =    336656.2039 E_impro  =     14280.2811 E_vdwl   =   -133321.7200 
E_coul   =  13345372.0221 E_long   = -17418117.7347 Press    =       -31.5201 
Volume   =  19795789.2624 
---------------- Step     2400 ----- CPU =   2657.6223 (sec) ----------------
TotEng   =  -1607203.7029 KinEng   =   1376888.6243 Temp     =       299.9903 
PotEng   =  -2984092.3272 E_bond   =    163934.0219 E_angle  =    705850.2794 
E_dihed  =    337312.2336 E_impro  =     14379.9333 E_vdwl   =   -134457.7846 
E_coul   =  13346932.6913 E_long   = -17418043.7020 Press    =        44.9096 
Volume   =  19793834.5733 
---------------- Step     2450 ----- CPU =   2713.7081 (sec) ----------------
TotEng   =  -1606078.3456 KinEng   =   1377081.4515 Temp     =       300.0323 
PotEng   =  -2983159.7971 E_bond   =    164477.8802 E_angle  =    705818.4902 
E_dihed  =    336617.6087 E_impro  =     14264.8260 E_vdwl   =   -132873.2382 
E_coul   =  13346522.1230 E_long   = -17417987.4869 Press    =        -9.1806 
Volume   =  19791878.8698 
---------------- Step     2500 ----- CPU =   2768.7510 (sec) ----------------
TotEng   =  -1606548.0103 KinEng   =   1379375.1988 Temp     =       300.5321 
PotEng   =  -2985923.2091 E_bond   =    164486.6780 E_angle  =    704304.7021 
E_dihed  =    337131.5934 E_impro  =     14259.3125 E_vdwl   =   -134287.3976 
E_coul   =  13346293.8114 E_long   = -17418111.9089 Press    =       -30.7692 
Volume   =  19790586.3670 
---------------- Step     2550 ----- CPU =   2825.0122 (sec) ----------------
TotEng   =  -1608451.1981 KinEng   =   1377046.1599 Temp     =       300.0246 
PotEng   =  -2985497.3580 E_bond   =    164584.8407 E_angle  =    705271.9844 
E_dihed  =    336707.0790 E_impro  =     14241.9152 E_vdwl   =   -132820.3102 
E_coul   =  13344654.1797 E_long   = -17418137.0467 Press    =        10.0076 
Volume   =  19789403.3680 
---------------- Step     2600 ----- CPU =   2880.0456 (sec) ----------------
TotEng   =  -1609886.8933 KinEng   =   1376160.9942 Temp     =       299.8318 
PotEng   =  -2986047.8876 E_bond   =    164361.5123 E_angle  =    705922.5696 
E_dihed  =    336388.2347 E_impro  =     14251.8472 E_vdwl   =   -133016.7530 
E_coul   =  13344113.5135 E_long   = -17418068.8119 Press    =        22.0836 
Volume   =  19789277.1403 
---------------- Step     2650 ----- CPU =   2936.2688 (sec) ----------------
TotEng   =  -1609684.9966 KinEng   =   1376183.9979 Temp     =       299.8368 
PotEng   =  -2985868.9945 E_bond   =    164403.8653 E_angle  =    704954.8817 
E_dihed  =    336937.6100 E_impro  =     14252.9186 E_vdwl   =   -135604.6463 
E_coul   =  13347326.6069 E_long   = -17418140.2308 Press    =       -55.1825 
Volume   =  19790248.4718 
---------------- Step     2700 ----- CPU =   2992.4901 (sec) ----------------
TotEng   =  -1607811.9624 KinEng   =   1377011.7333 Temp     =       300.0171 
PotEng   =  -2984823.6957 E_bond   =    164756.7967 E_angle  =    706353.2575 
E_dihed  =    337050.6682 E_impro  =     14424.2461 E_vdwl   =   -134959.8047 
E_coul   =  13345598.3127 E_long   = -17418047.1722 Press    =       -77.2676 
Volume   =  19790193.2762 
---------------- Step     2750 ----- CPU =   3048.6655 (sec) ----------------
TotEng   =  -1606264.2278 KinEng   =   1378412.3819 Temp     =       300.3223 
PotEng   =  -2984676.6097 E_bond   =    164814.9674 E_angle  =    705835.1525 
E_dihed  =    337516.1279 E_impro  =     14273.1108 E_vdwl   =   -133849.0762 
E_coul   =  13344907.3377 E_long   = -17418174.2298 Press    =       -86.3717 
Volume   =  19789559.6239 
---------------- Step     2800 ----- CPU =   3104.7897 (sec) ----------------
TotEng   =  -1606205.9483 KinEng   =   1378793.3457 Temp     =       300.4053 
PotEng   =  -2984999.2940 E_bond   =    164528.3322 E_angle  =    706930.2710 
E_dihed  =    337026.7097 E_impro  =     14329.4592 E_vdwl   =   -134851.7745 
E_coul   =  13345167.3876 E_long   = -17418129.6793 Press    =        37.8545 
Volume   =  19788951.0505 
---------------- Step     2850 ----- CPU =   3159.8501 (sec) ----------------
TotEng   =  -1608356.5412 KinEng   =   1377589.0766 Temp     =       300.1429 
PotEng   =  -2985945.6177 E_bond   =    164255.4652 E_angle  =    706664.1526 
E_dihed  =    336925.1100 E_impro  =     14309.0726 E_vdwl   =   -132936.2839 
E_coul   =  13342982.8053 E_long   = -17418145.9396 Press    =       -30.6555 
Volume   =  19788779.8109 
---------------- Step     2900 ----- CPU =   3216.0295 (sec) ----------------
TotEng   =  -1611151.9464 KinEng   =   1375974.2290 Temp     =       299.7911 
PotEng   =  -2987126.1754 E_bond   =    164155.7840 E_angle  =    706136.8956 
E_dihed  =    337009.0080 E_impro  =     14397.6744 E_vdwl   =   -133447.1120 
E_coul   =  13342751.7916 E_long   = -17418130.2168 Press    =         1.7485 
Volume   =  19788385.2114 
---------------- Step     2950 ----- CPU =   3271.0321 (sec) ----------------
TotEng   =  -1612547.4005 KinEng   =   1376069.0603 Temp     =       299.8118 
PotEng   =  -2988616.4607 E_bond   =    164719.1308 E_angle  =    705103.6744 
E_dihed  =    337313.7147 E_impro  =     14358.8889 E_vdwl   =   -134777.4432 
E_coul   =  13342857.3396 E_long   = -17418191.7659 Press    =       -77.5086 
Volume   =  19788263.3706 
---------------- Step     3000 ----- CPU =   3327.2335 (sec) ----------------
TotEng   =  -1611389.6653 KinEng   =   1376591.2825 Temp     =       299.9255 
PotEng   =  -2987980.9478 E_bond   =    164238.1020 E_angle  =    706134.8147 
E_dihed  =    336875.8263 E_impro  =     14380.0902 E_vdwl   =   -134654.4896 
E_coul   =  13343255.3932 E_long   = -17418210.6845 Press    =       -75.5702 
Volume   =  19787593.7689 
---------------- Step     3050 ----- CPU =   3383.3976 (sec) ----------------
TotEng   =  -1609215.6000 KinEng   =   1376092.2723 Temp     =       299.8168 
PotEng   =  -2985307.8723 E_bond   =    164426.8736 E_angle  =    707366.3274 
E_dihed  =    336836.6150 E_impro  =     14203.7198 E_vdwl   =   -132242.6199 
E_coul   =  13342255.1449 E_long   = -17418153.9330 Press    =        11.3485 
Volume   =  19785650.9040 
---------------- Step     3100 ----- CPU =   3438.4628 (sec) ----------------
TotEng   =  -1607141.0660 KinEng   =   1377437.1417 Temp     =       300.1098 
PotEng   =  -2984578.2078 E_bond   =    164645.1836 E_angle  =    707717.7203 
E_dihed  =    337089.1197 E_impro  =     14436.8860 E_vdwl   =   -131551.6540 
E_coul   =  13341367.4758 E_long   = -17418282.9392 Press    =        24.4000 
Volume   =  19783671.7617 
---------------- Step     3150 ----- CPU =   3494.6026 (sec) ----------------
TotEng   =  -1606842.1218 KinEng   =   1378277.1877 Temp     =       300.2929 
PotEng   =  -2985119.3095 E_bond   =    164737.4963 E_angle  =    706547.4892 
E_dihed  =    337047.9095 E_impro  =     14297.5137 E_vdwl   =   -133223.6216 
E_coul   =  13343660.9774 E_long   = -17418187.0740 Press    =         7.7337 
Volume   =  19782788.8481 
---------------- Step     3200 ----- CPU =   3550.8420 (sec) ----------------
TotEng   =  -1608591.3736 KinEng   =   1377273.9676 Temp     =       300.0743 
PotEng   =  -2985865.3412 E_bond   =    164638.1381 E_angle  =    707166.9024 
E_dihed  =    337089.6697 E_impro  =     14385.0075 E_vdwl   =   -134856.7578 
E_coul   =  13343862.6721 E_long   = -17418150.9732 Press    =       -63.4336 
Volume   =  19782410.1317 
---------------- Step     3250 ----- CPU =   3607.1376 (sec) ----------------
TotEng   =  -1611642.6501 KinEng   =   1375996.7551 Temp     =       299.7960 
PotEng   =  -2987639.4052 E_bond   =    164372.6289 E_angle  =    706773.8350 
E_dihed  =    336601.5861 E_impro  =     14377.5629 E_vdwl   =   -134349.0879 
E_coul   =  13342825.9083 E_long   = -17418241.8387 Press    =         6.9292 
Volume   =  19781216.8841 
---------------- Step     3300 ----- CPU =   3663.3498 (sec) ----------------
TotEng   =  -1612781.5499 KinEng   =   1375482.3208 Temp     =       299.6839 
PotEng   =  -2988263.8707 E_bond   =    164001.6638 E_angle  =    706514.4724 
E_dihed  =    337214.3995 E_impro  =     14494.4820 E_vdwl   =   -132484.4849 
E_coul   =  13340115.0224 E_long   = -17418119.4258 Press    =       -44.0027 
Volume   =  19780229.6494 
---------------- Step     3350 ----- CPU =   3719.5979 (sec) ----------------
TotEng   =  -1611132.6145 KinEng   =   1376920.6536 Temp     =       299.9973 
PotEng   =  -2988053.2681 E_bond   =    164708.6823 E_angle  =    705909.8879 
E_dihed  =    336891.6782 E_impro  =     14332.5305 E_vdwl   =   -132352.3944 
E_coul   =  13340651.5223 E_long   = -17418195.1747 Press    =         6.1474 
Volume   =  19778303.4448 
---------------- Step     3400 ----- CPU =   3774.7346 (sec) ----------------
TotEng   =  -1609424.2685 KinEng   =   1377033.6955 Temp     =       300.0219 
PotEng   =  -2986457.9640 E_bond   =    165103.0943 E_angle  =    706900.3812 
E_dihed  =    336883.9763 E_impro  =     14311.1165 E_vdwl   =   -132544.3413 
E_coul   =  13341181.9565 E_long   = -17418294.1475 Press    =       -30.1216 
Volume   =  19776846.9359 
---------------- Step     3450 ----- CPU =   3831.0145 (sec) ----------------
TotEng   =  -1609178.3852 KinEng   =   1376559.5908 Temp     =       299.9186 
PotEng   =  -2985737.9760 E_bond   =    164862.8382 E_angle  =    707608.0813 
E_dihed  =    336969.1120 E_impro  =     14415.8235 E_vdwl   =   -133070.9050 
E_coul   =  13341697.8381 E_long   = -17418220.7641 Press    =       -60.2797 
Volume   =  19777358.9242 
---------------- Step     3500 ----- CPU =   3886.1966 (sec) ----------------
TotEng   =  -1609768.7794 KinEng   =   1376825.4246 Temp     =       299.9766 
PotEng   =  -2986594.2040 E_bond   =    164369.4695 E_angle  =    707503.0945 
E_dihed  =    337189.8642 E_impro  =     14476.4498 E_vdwl   =   -131938.7912 
E_coul   =  13340065.2897 E_long   = -17418259.5805 Press    =        32.2368 
Volume   =  19778784.1975 
---------------- Step     3550 ----- CPU =   3942.5280 (sec) ----------------
TotEng   =  -1610793.4792 KinEng   =   1377218.0678 Temp     =       300.0621 
PotEng   =  -2988011.5471 E_bond   =    164829.3554 E_angle  =    706110.0726 
E_dihed  =    336958.2600 E_impro  =     14392.1811 E_vdwl   =   -130945.1208 
E_coul   =  13338835.2896 E_long   = -17418191.5849 Press    =       -18.8128 
Volume   =  19781684.5119 
---------------- Step     3600 ----- CPU =   3997.5783 (sec) ----------------
TotEng   =  -1611605.3304 KinEng   =   1376474.8777 Temp     =       299.9002 
PotEng   =  -2988080.2082 E_bond   =    164522.4701 E_angle  =    706834.1126 
E_dihed  =    336800.2070 E_impro  =     14424.4834 E_vdwl   =   -132021.1643 
E_coul   =  13339631.8834 E_long   = -17418272.2004 Press    =       -37.5483 
Volume   =  19783840.1173 
---------------- Step     3650 ----- CPU =   4053.8706 (sec) ----------------
TotEng   =  -1611788.1008 KinEng   =   1376423.8809 Temp     =       299.8891 
PotEng   =  -2988211.9817 E_bond   =    165280.3191 E_angle  =    706920.1081 
E_dihed  =    336706.0496 E_impro  =     14352.7673 E_vdwl   =   -133468.0558 
E_coul   =  13340124.9474 E_long   = -17418128.1174 Press    =         0.4210 
Volume   =  19785333.9429 
---------------- Step     3700 ----- CPU =   4110.1468 (sec) ----------------
TotEng   =  -1610643.1530 KinEng   =   1375611.0782 Temp     =       299.7120 
PotEng   =  -2986254.2312 E_bond   =    165094.1916 E_angle  =    707443.8249 
E_dihed  =    337167.1197 E_impro  =     14339.1544 E_vdwl   =   -132733.8471 
E_coul   =  13340633.2474 E_long   = -17418197.9222 Press    =       -14.5923 
Volume   =  19785392.1910 
---------------- Step     3750 ----- CPU =   4166.3665 (sec) ----------------
TotEng   =  -1608722.4981 KinEng   =   1378873.1370 Temp     =       300.4227 
PotEng   =  -2987595.6351 E_bond   =    165510.6349 E_angle  =    707160.6971 
E_dihed  =    336432.5688 E_impro  =     14296.4557 E_vdwl   =   -131800.8615 
E_coul   =  13338967.2121 E_long   = -17418162.3423 Press    =       -45.0134 
Volume   =  19784256.2698 
---------------- Step     3800 ----- CPU =   4222.5985 (sec) ----------------
TotEng   =  -1608634.1854 KinEng   =   1377330.7023 Temp     =       300.0866 
PotEng   =  -2985964.8877 E_bond   =    165221.9662 E_angle  =    708152.9292 
E_dihed  =    337023.3985 E_impro  =     14318.7832 E_vdwl   =   -132630.2749 
E_coul   =  13340157.5717 E_long   = -17418209.2617 Press    =       -36.4951 
Volume   =  19782893.8217 
---------------- Step     3850 ----- CPU =   4277.7407 (sec) ----------------
TotEng   =  -1610360.3082 KinEng   =   1378252.5701 Temp     =       300.2875 
PotEng   =  -2988612.8784 E_bond   =    165302.1384 E_angle  =    707436.2702 
E_dihed  =    336839.7277 E_impro  =     14419.5256 E_vdwl   =   -133757.1738 
E_coul   =  13339382.2623 E_long   = -17418235.6288 Press    =       -80.5016 
Volume   =  19780224.3067 
---------------- Step     3900 ----- CPU =   4333.9941 (sec) ----------------
TotEng   =  -1612509.1571 KinEng   =   1377762.6527 Temp     =       300.1808 
PotEng   =  -2990271.8098 E_bond   =    164683.0577 E_angle  =    705914.0793 
E_dihed  =    336929.8531 E_impro  =     14334.5730 E_vdwl   =   -132164.8747 
E_coul   =  13338295.3232 E_long   = -17418263.8215 Press    =         1.6070 
Volume   =  19776866.9432 
---------------- Step     3950 ----- CPU =   4390.2863 (sec) ----------------
TotEng   =  -1613498.1964 KinEng   =   1376446.4262 Temp     =       299.8940 
PotEng   =  -2989944.6225 E_bond   =    164919.0892 E_angle  =    706692.2012 
E_dihed  =    337168.0168 E_impro  =     14324.1251 E_vdwl   =   -132961.7277 
E_coul   =  13338097.1219 E_long   = -17418183.4490 Press    =        -3.0388 
Volume   =  19774485.8504 
---------------- Step     4000 ----- CPU =   4445.4322 (sec) ----------------
TotEng   =  -1613124.1450 KinEng   =   1376802.8104 Temp     =       299.9716 
PotEng   =  -2989926.9554 E_bond   =    164616.1224 E_angle  =    707513.4140 
E_dihed  =    336933.4246 E_impro  =     14417.9202 E_vdwl   =   -133719.7696 
E_coul   =  13338518.7614 E_long   = -17418206.8284 Press    =       -15.5319 
Volume   =  19772828.5924 
---------------- Step     4050 ----- CPU =   4501.7202 (sec) ----------------
TotEng   =  -1612168.2231 KinEng   =   1376296.2702 Temp     =       299.8613 
PotEng   =  -2988464.4932 E_bond   =    164760.5229 E_angle  =    708908.0536 
E_dihed  =    336865.7841 E_impro  =     14470.1195 E_vdwl   =   -133050.5848 
E_coul   =  13338009.3814 E_long   = -17418427.7699 Press    =       -48.0328 
Volume   =  19771265.2760 
---------------- Step     4100 ----- CPU =   4557.9911 (sec) ----------------
TotEng   =  -1611585.2658 KinEng   =   1377245.6725 Temp     =       300.0681 
PotEng   =  -2988830.9383 E_bond   =    165132.9658 E_angle  =    708450.6142 
E_dihed  =    337167.1507 E_impro  =     14394.0226 E_vdwl   =   -132643.3614 
E_coul   =  13336937.9406 E_long   = -17418270.2709 Press    =        -8.3499 
Volume   =  19769297.8307 
---------------- Step     4150 ----- CPU =   4614.3723 (sec) ----------------
TotEng   =  -1611729.9181 KinEng   =   1376976.0045 Temp     =       300.0094 
PotEng   =  -2988705.9226 E_bond   =    165544.4445 E_angle  =    706924.7664 
E_dihed  =    337287.1007 E_impro  =     14308.9212 E_vdwl   =   -132935.0719 
E_coul   =  13338409.4055 E_long   = -17418245.4891 Press    =        -3.5113 
Volume   =  19766479.3610 
---------------- Step     4200 ----- CPU =   4669.6364 (sec) ----------------
TotEng   =  -1612142.4710 KinEng   =   1376862.7846 Temp     =       299.9847 
PotEng   =  -2989005.2556 E_bond   =    165188.2844 E_angle  =    706575.4387 
E_dihed  =    336800.3490 E_impro  =     14329.0290 E_vdwl   =   -132894.3534 
E_coul   =  13339291.3031 E_long   = -17418295.3062 Press    =       -40.5057 
Volume   =  19764353.1184 
---------------- Step     4250 ----- CPU =   4725.9718 (sec) ----------------
TotEng   =  -1612336.8968 KinEng   =   1377142.2149 Temp     =       300.0456 
PotEng   =  -2989479.1117 E_bond   =    165089.0264 E_angle  =    706892.7721 
E_dihed  =    336762.3411 E_impro  =     14382.0094 E_vdwl   =   -132465.6664 
E_coul   =  13338055.0245 E_long   = -17418194.6189 Press    =        14.2368 
Volume   =  19762025.6707 
---------------- Step     4300 ----- CPU =   4781.1877 (sec) ----------------
TotEng   =  -1612784.5583 KinEng   =   1377553.7789 Temp     =       300.1352 
PotEng   =  -2990338.3373 E_bond   =    164784.0984 E_angle  =    708049.2929 
E_dihed  =    336865.0699 E_impro  =     14429.9787 E_vdwl   =   -133496.4282 
E_coul   =  13337308.6269 E_long   = -17418278.9759 Press    =       -21.5317 
Volume   =  19760255.6079 
---------------- Step     4350 ----- CPU =   4837.5283 (sec) ----------------
TotEng   =  -1613365.1586 KinEng   =   1376995.8436 Temp     =       300.0137 
PotEng   =  -2990361.0022 E_bond   =    164822.0344 E_angle  =    706420.3612 
E_dihed  =    336576.4574 E_impro  =     14338.4105 E_vdwl   =   -132710.1265 
E_coul   =  13338376.8212 E_long   = -17418184.9604 Press    =        57.3865 
Volume   =  19757709.0271 
---------------- Step     4400 ----- CPU =   4893.8915 (sec) ----------------
TotEng   =  -1612571.4336 KinEng   =   1376504.4780 Temp     =       299.9066 
PotEng   =  -2989075.9116 E_bond   =    165598.6613 E_angle  =    707624.0492 
E_dihed  =    337072.3637 E_impro  =     14533.4165 E_vdwl   =   -132996.4197 
E_coul   =  13337331.9063 E_long   = -17418239.8888 Press    =       -45.6881 
Volume   =  19755700.1436 
---------------- Step     4450 ----- CPU =   4949.0516 (sec) ----------------
TotEng   =  -1611590.9483 KinEng   =   1376971.4821 Temp     =       300.0084 
PotEng   =  -2988562.4304 E_bond   =    165048.2253 E_angle  =    708249.4628 
E_dihed  =    337230.0772 E_impro  =     14307.9286 E_vdwl   =   -131142.7936 
E_coul   =  13335814.2423 E_long   = -17418069.5731 Press    =        21.5527 
Volume   =  19754560.8740 
---------------- Step     4500 ----- CPU =   5005.3655 (sec) ----------------
TotEng   =  -1611927.3058 KinEng   =   1378147.5447 Temp     =       300.2646 
PotEng   =  -2990074.8504 E_bond   =    164981.6909 E_angle  =    707960.5390 
E_dihed  =    336758.0695 E_impro  =     14350.1849 E_vdwl   =   -133985.4125 
E_coul   =  13338010.8627 E_long   = -17418150.7849 Press    =        -5.9748 
Volume   =  19755246.2851 
---------------- Step     4550 ----- CPU =   5060.4654 (sec) ----------------
TotEng   =  -1613435.8005 KinEng   =   1376589.6173 Temp     =       299.9252 
PotEng   =  -2990025.4178 E_bond   =    165202.6716 E_angle  =    707438.2091 
E_dihed  =    336940.3119 E_impro  =     14500.6577 E_vdwl   =   -134472.6688 
E_coul   =  13338608.9854 E_long   = -17418243.5846 Press    =       -13.0566 
Volume   =  19757256.7200 
---------------- Step     4600 ----- CPU =   5116.8120 (sec) ----------------
TotEng   =  -1614476.7618 KinEng   =   1377575.2271 Temp     =       300.1399 
PotEng   =  -2992051.9889 E_bond   =    164952.7333 E_angle  =    707105.2965 
E_dihed  =    336524.6797 E_impro  =     14319.2457 E_vdwl   =   -132970.7118 
E_coul   =  13336359.9420 E_long   = -17418343.1741 Press    =       -30.5317 
Volume   =  19759117.9717 
---------------- Step     4650 ----- CPU =   5174.2012 (sec) ----------------
TotEng   =  -1614805.9181 KinEng   =   1377071.4646 Temp     =       300.0302 
PotEng   =  -2991877.3826 E_bond   =    165113.5619 E_angle  =    706961.4413 
E_dihed  =    337198.3978 E_impro  =     14300.0027 E_vdwl   =   -134627.5259 
E_coul   =  13337390.3477 E_long   = -17418213.6082 Press    =       -13.0291 
Volume   =  19759630.5459 
---------------- Step     4700 ----- CPU =   5229.3528 (sec) ----------------
TotEng   =  -1614416.6463 KinEng   =   1375463.8191 Temp     =       299.6799 
PotEng   =  -2989880.4654 E_bond   =    165237.0022 E_angle  =    707843.6087 
E_dihed  =    337470.5103 E_impro  =     14426.4299 E_vdwl   =   -133167.0613 
E_coul   =  13336553.9632 E_long   = -17418244.9185 Press    =       -30.7723 
Volume   =  19759325.8009 
---------------- Step     4750 ----- CPU =   5285.7149 (sec) ----------------
TotEng   =  -1613725.7275 KinEng   =   1377523.2068 Temp     =       300.1286 
PotEng   =  -2991248.9343 E_bond   =    164777.2031 E_angle  =    707631.7049 
E_dihed  =    337027.2336 E_impro  =     14378.2491 E_vdwl   =   -131821.0867 
E_coul   =  13334952.0627 E_long   = -17418194.3010 Press    =        15.8131 
Volume   =  19758465.6203 
---------------- Step     4800 ----- CPU =   5342.1390 (sec) ----------------
TotEng   =  -1612861.2481 KinEng   =   1377564.6772 Temp     =       300.1376 
PotEng   =  -2990425.9253 E_bond   =    165540.3019 E_angle  =    707379.6451 
E_dihed  =    337089.3990 E_impro  =     14269.5084 E_vdwl   =   -132138.2834 
E_coul   =  13335745.1391 E_long   = -17418311.6353 Press    =        23.7018 
Volume   =  19758216.8054 
---------------- Step     4850 ----- CPU =   5398.6080 (sec) ----------------
TotEng   =  -1612740.1709 KinEng   =   1377815.1852 Temp     =       300.1922 
PotEng   =  -2990555.3562 E_bond   =    165269.8782 E_angle  =    708470.7649 
E_dihed  =    337442.4677 E_impro  =     14397.5660 E_vdwl   =   -132687.3645 
E_coul   =  13334949.7634 E_long   = -17418398.4319 Press    =       -52.4226 
Volume   =  19759353.3284 
---------------- Step     4900 ----- CPU =   5454.8715 (sec) ----------------
TotEng   =  -1614083.9748 KinEng   =   1376682.8723 Temp     =       299.9455 
PotEng   =  -2990766.8471 E_bond   =    165414.6443 E_angle  =    707269.7184 
E_dihed  =    336999.4154 E_impro  =     14513.6488 E_vdwl   =   -131740.8347 
E_coul   =  13335154.0372 E_long   = -17418377.4765 Press    =        -6.1426 
Volume   =  19759935.2726 
---------------- Step     4950 ----- CPU =   5510.0961 (sec) ----------------
TotEng   =  -1615265.3848 KinEng   =   1375273.4625 Temp     =       299.6384 
PotEng   =  -2990538.8473 E_bond   =    165674.7803 E_angle  =    707919.1503 
E_dihed  =    336685.6836 E_impro  =     14432.3854 E_vdwl   =   -132741.7707 
E_coul   =  13335721.8632 E_long   = -17418230.9394 Press    =        17.0830 
Volume   =  19760241.1452 
---------------- Step     5000 ----- CPU =   5565.2774 (sec) ----------------
TotEng   =  -1614894.8520 KinEng   =   1377672.9994 Temp     =       300.1612 
PotEng   =  -2992567.8514 E_bond   =    165386.7298 E_angle  =    707947.1415 
E_dihed  =    336464.9755 E_impro  =     14437.0960 E_vdwl   =   -132722.1763 
E_coul   =  13334369.5312 E_long   = -17418451.1492 Press    =         0.9177 
Volume   =  19758352.0976 
---------------- Step     5050 ----- CPU =   5621.6060 (sec) ----------------
TotEng   =  -1613973.5963 KinEng   =   1378341.9749 Temp     =       300.3070 
PotEng   =  -2992315.5713 E_bond   =    165318.4552 E_angle  =    707344.4663 
E_dihed  =    336807.1646 E_impro  =     14399.7562 E_vdwl   =   -131651.7178 
E_coul   =  13333638.9958 E_long   = -17418172.6916 Press    =        -1.2114 
Volume   =  19755503.1245 
---------------- Step     5100 ----- CPU =   5677.9914 (sec) ----------------
TotEng   =  -1613557.0469 KinEng   =   1377673.5874 Temp     =       300.1613 
PotEng   =  -2991230.6343 E_bond   =    165608.5496 E_angle  =    708617.1799 
E_dihed  =    337069.3520 E_impro  =     14342.4616 E_vdwl   =   -131707.8302 
E_coul   =  13333181.6031 E_long   = -17418341.9503 Press    =         7.2466 
Volume   =  19753531.2508 
---------------- Step     5150 ----- CPU =   5733.2330 (sec) ----------------
TotEng   =  -1614249.8964 KinEng   =   1377321.6404 Temp     =       300.0847 
PotEng   =  -2991571.5369 E_bond   =    165820.4987 E_angle  =    707963.9780 
E_dihed  =    337008.2181 E_impro  =     14354.1376 E_vdwl   =   -132152.2741 
E_coul   =  13333694.9657 E_long   = -17418261.0608 Press    =       -15.2567 
Volume   =  19753035.8508 
---------------- Step     5200 ----- CPU =   5789.6380 (sec) ----------------
TotEng   =  -1615856.1727 KinEng   =   1375506.1533 Temp     =       299.6891 
PotEng   =  -2991362.3260 E_bond   =    165354.1558 E_angle  =    707477.7346 
E_dihed  =    337122.3731 E_impro  =     14394.2914 E_vdwl   =   -131723.7174 
E_coul   =  13334358.4946 E_long   = -17418345.6580 Press    =        32.0995 
Volume   =  19753995.2903 
---------------- Step     5250 ----- CPU =   5846.0046 (sec) ----------------
TotEng   =  -1616142.2095 KinEng   =   1375997.5284 Temp     =       299.7962 
PotEng   =  -2992139.7379 E_bond   =    165252.8382 E_angle  =    708008.9501 
E_dihed  =    336324.1534 E_impro  =     14336.7066 E_vdwl   =   -132469.3915 
E_coul   =  13334589.5616 E_long   = -17418182.5565 Press    =       -18.3081 
Volume   =  19755292.0311 
---------------- Step     5300 ----- CPU =   5901.2283 (sec) ----------------
TotEng   =  -1615285.8249 KinEng   =   1376815.7840 Temp     =       299.9745 
PotEng   =  -2992101.6089 E_bond   =    165473.7777 E_angle  =    708640.6869 
E_dihed  =    336712.9859 E_impro  =     14303.3650 E_vdwl   =   -133605.2488 
E_coul   =  13334547.1852 E_long   = -17418174.3607 Press    =       -23.4171 
Volume   =  19756559.9420 
---------------- Step     5350 ----- CPU =   5957.6408 (sec) ----------------
TotEng   =  -1613892.9309 KinEng   =   1377130.4981 Temp     =       300.0430 
PotEng   =  -2991023.4290 E_bond   =    165957.0185 E_angle  =    708372.1621 
E_dihed  =    336845.8905 E_impro  =     14453.4604 E_vdwl   =   -133439.6313 
E_coul   =  13335120.7057 E_long   = -17418333.0349 Press    =       -25.6916 
Volume   =  19757228.3361 
---------------- Step     5400 ----- CPU =   6012.9787 (sec) ----------------
TotEng   =  -1613292.4940 KinEng   =   1377860.6435 Temp     =       300.2021 
PotEng   =  -2991153.1375 E_bond   =    165497.6353 E_angle  =    708688.8907 
E_dihed  =    336831.9982 E_impro  =     14311.0601 E_vdwl   =   -131188.6674 
E_coul   =  13333048.8364 E_long   = -17418342.8908 Press    =        44.9965 
Volume   =  19756121.6021 
---------------- Step     5450 ----- CPU =   6069.4329 (sec) ----------------
TotEng   =  -1614399.0120 KinEng   =   1377402.4534 Temp     =       300.1023 
PotEng   =  -2991801.4654 E_bond   =    165464.0555 E_angle  =    708141.6475 
E_dihed  =    336581.6673 E_impro  =     14341.4036 E_vdwl   =   -131225.9504 
E_coul   =  13333133.2545 E_long   = -17418237.5434 Press    =        22.1359 
Volume   =  19755907.3443 
---------------- Step     5500 ----- CPU =   6124.6363 (sec) ----------------
TotEng   =  -1615843.6077 KinEng   =   1376009.7790 Temp     =       299.7988 
PotEng   =  -2991853.3868 E_bond   =    165596.7006 E_angle  =    708524.0392 
E_dihed  =    336565.8857 E_impro  =     14488.4493 E_vdwl   =   -133263.3374 
E_coul   =  13334381.6895 E_long   = -17418146.8137 Press    =       -64.5630 
Volume   =  19757397.3030 
---------------- Step     5550 ----- CPU =   6180.8896 (sec) ----------------
TotEng   =  -1616314.2537 KinEng   =   1375472.4677 Temp     =       299.6818 
PotEng   =  -2991786.7214 E_bond   =    165257.7607 E_angle  =    709672.1841 
E_dihed  =    336866.6067 E_impro  =     14461.9199 E_vdwl   =   -132961.2511 
E_coul   =  13333138.3524 E_long   = -17418222.2943 Press    =       -15.8172 
Volume   =  19757352.6833 
---------------- Step     5600 ----- CPU =   6237.3099 (sec) ----------------
TotEng   =  -1615415.7403 KinEng   =   1377146.7973 Temp     =       300.0466 
PotEng   =  -2992562.5375 E_bond   =    165359.5055 E_angle  =    709747.7007 
E_dihed  =    336871.1367 E_impro  =     14316.5759 E_vdwl   =   -133820.2548 
E_coul   =  13333138.5560 E_long   = -17418175.7576 Press    =        -5.2831 
Volume   =  19756692.8142 
---------------- Step     5650 ----- CPU =   6292.6248 (sec) ----------------
TotEng   =  -1615072.5977 KinEng   =   1377658.1698 Temp     =       300.1580 
PotEng   =  -2992730.7675 E_bond   =    165522.4297 E_angle  =    707570.9852 
E_dihed  =    337111.5510 E_impro  =     14400.6375 E_vdwl   =   -131961.0691 
E_coul   =  13332851.3711 E_long   = -17418226.6730 Press    =       -20.8415 
Volume   =  19756035.3435 
---------------- Step     5700 ----- CPU =   6349.1456 (sec) ----------------
TotEng   =  -1614804.2907 KinEng   =   1375757.2428 Temp     =       299.7438 
PotEng   =  -2990561.5335 E_bond   =    166256.4486 E_angle  =    709359.9106 
E_dihed  =    336756.8733 E_impro  =     14507.4562 E_vdwl   =   -131624.9921 
E_coul   =  13332519.9235 E_long   = -17418337.1535 Press    =         6.0928 
Volume   =  19755959.9184 
---------------- Step     5750 ----- CPU =   6405.4903 (sec) ----------------
TotEng   =  -1614650.6422 KinEng   =   1376487.5419 Temp     =       299.9029 
PotEng   =  -2991138.1841 E_bond   =    165448.6001 E_angle  =    710002.6940 
E_dihed  =    336909.0635 E_impro  =     14396.1696 E_vdwl   =   -132299.9339 
E_coul   =  13332724.7324 E_long   = -17418319.5097 Press    =        -8.8723 
Volume   =  19755987.6060 
---------------- Step     5800 ----- CPU =   6461.8846 (sec) ----------------
TotEng   =  -1615154.8178 KinEng   =   1378039.9670 Temp     =       300.2412 
PotEng   =  -2993194.7847 E_bond   =    165710.4158 E_angle  =    708416.2560 
E_dihed  =    336789.5507 E_impro  =     14316.6749 E_vdwl   =   -132006.6319 
E_coul   =  13331901.7405 E_long   = -17418322.7908 Press    =        -1.2370 
Volume   =  19755109.3103 
---------------- Step     5850 ----- CPU =   6517.1573 (sec) ----------------
TotEng   =  -1616206.0257 KinEng   =   1376800.8412 Temp     =       299.9712 
PotEng   =  -2993006.8668 E_bond   =    165768.3406 E_angle  =    707916.5983 
E_dihed  =    337200.4088 E_impro  =     14498.8339 E_vdwl   =   -132123.8727 
E_coul   =  13331908.5170 E_long   = -17418175.6927 Press    =       -37.8745 
Volume   =  19754868.8098 
---------------- Step     5900 ----- CPU =   6573.4946 (sec) ----------------
TotEng   =  -1616666.1344 KinEng   =   1375805.2588 Temp     =       299.7543 
PotEng   =  -2992471.3932 E_bond   =    165774.0103 E_angle  =    708831.8269 
E_dihed  =    336617.9171 E_impro  =     14399.2676 E_vdwl   =   -131161.4827 
E_coul   =  13331391.9723 E_long   = -17418324.9047 Press    =       -13.6082 
Volume   =  19754557.9176 
---------------- Step     5950 ----- CPU =   6628.7879 (sec) ----------------
TotEng   =  -1616680.7556 KinEng   =   1375093.1823 Temp     =       299.5991 
PotEng   =  -2991773.9379 E_bond   =    165982.0835 E_angle  =    709900.7461 
E_dihed  =    336986.6419 E_impro  =     14326.8829 E_vdwl   =   -131673.0328 
E_coul   =  13331046.1447 E_long   = -17418343.4042 Press    =       -30.2285 
Volume   =  19754516.0059 
---------------- Step     6000 ----- CPU =   6685.2162 (sec) ----------------
TotEng   =  -1616683.5138 KinEng   =   1377151.9674 Temp     =       300.0477 
PotEng   =  -2993835.4812 E_bond   =    165077.7173 E_angle  =    709810.8314 
E_dihed  =    336778.2902 E_impro  =     14277.9905 E_vdwl   =   -130990.1819 
E_coul   =  13329543.3560 E_long   = -17418333.4846 Press    =       -25.4681 
Volume   =  19754844.4788 
---------------- Step     6050 ----- CPU =   6741.6282 (sec) ----------------
TotEng   =  -1617668.6197 KinEng   =   1376307.9142 Temp     =       299.8638 
PotEng   =  -2993976.5339 E_bond   =    165223.5255 E_angle  =    708754.2699 
E_dihed  =    336953.0229 E_impro  =     14364.4129 E_vdwl   =   -132105.5946 
E_coul   =  13331234.0755 E_long   = -17418400.2459 Press    =       -38.6858 
Volume   =  19754074.3277 
---------------- Step     6100 ----- CPU =   6796.8422 (sec) ----------------
TotEng   =  -1617194.1974 KinEng   =   1375991.9855 Temp     =       299.7950 
PotEng   =  -2993186.1829 E_bond   =    165604.7575 E_angle  =    708670.5388 
E_dihed  =    337278.5260 E_impro  =     14463.3714 E_vdwl   =   -133664.2520 
E_coul   =  13332670.6135 E_long   = -17418209.7381 Press    =         7.4073 
Volume   =  19753342.1318 
---------------- Step     6150 ----- CPU =   6853.2213 (sec) ----------------
TotEng   =  -1615092.7849 KinEng   =   1378326.9835 Temp     =       300.3037 
PotEng   =  -2993419.7684 E_bond   =    165468.3517 E_angle  =    708489.6385 
E_dihed  =    336985.6448 E_impro  =     14373.9160 E_vdwl   =   -132143.1138 
E_coul   =  13331764.2834 E_long   = -17418358.4889 Press    =        -3.8326 
Volume   =  19751884.9524 
---------------- Step     6200 ----- CPU =   6908.5598 (sec) ----------------
TotEng   =  -1613804.0859 KinEng   =   1379179.1409 Temp     =       300.4894 
PotEng   =  -2992983.2267 E_bond   =    165704.3691 E_angle  =    710015.8561 
E_dihed  =    336643.4816 E_impro  =     14429.5429 E_vdwl   =   -132687.0873 
E_coul   =  13331162.5813 E_long   = -17418251.9705 Press    =       -38.2505 
Volume   =  19751643.0872 
---------------- Step     6250 ----- CPU =   6964.9812 (sec) ----------------
TotEng   =  -1615338.0868 KinEng   =   1376728.1292 Temp     =       299.9554 
PotEng   =  -2992066.2160 E_bond   =    165803.1140 E_angle  =    709417.7105 
E_dihed  =    337778.1266 E_impro  =     14538.2518 E_vdwl   =   -132144.1740 
E_coul   =  13330792.8648 E_long   = -17418252.1097 Press    =        28.3290 
Volume   =  19750839.7720 
---------------- Step     6300 ----- CPU =   7020.2754 (sec) ----------------
TotEng   =  -1617995.4131 KinEng   =   1376004.8664 Temp     =       299.7978 
PotEng   =  -2994000.2794 E_bond   =    165393.2216 E_angle  =    708996.6230 
E_dihed  =    337020.6493 E_impro  =     14363.0886 E_vdwl   =   -131448.7458 
E_coul   =  13329988.6025 E_long   = -17418313.7185 Press    =        -0.9533 
Volume   =  19750324.9773 
---------------- Step     6350 ----- CPU =   7076.7093 (sec) ----------------
TotEng   =  -1619029.5264 KinEng   =   1374918.4133 Temp     =       299.5611 
PotEng   =  -2993947.9397 E_bond   =    165508.9115 E_angle  =    709643.0396 
E_dihed  =    337049.5034 E_impro  =     14423.4628 E_vdwl   =   -132751.3504 
E_coul   =  13330611.6495 E_long   = -17418433.1562 Press    =        -8.8585 
Volume   =  19750700.3769 
---------------- Step     6400 ----- CPU =   7133.0659 (sec) ----------------
TotEng   =  -1617347.6456 KinEng   =   1376429.4204 Temp     =       299.8903 
PotEng   =  -2993777.0659 E_bond   =    166012.5833 E_angle  =    708969.3031 
E_dihed  =    337256.8755 E_impro  =     14408.2405 E_vdwl   =   -132824.1767 
E_coul   =  13330784.2788 E_long   = -17418384.1704 Press    =         7.0244 
Volume   =  19751089.0289 
---------------- Step     6450 ----- CPU =   7188.3089 (sec) ----------------
TotEng   =  -1614501.1296 KinEng   =   1378618.4353 Temp     =       300.3672 
PotEng   =  -2993119.5649 E_bond   =    165503.0890 E_angle  =    709762.0342 
E_dihed  =    337088.4383 E_impro  =     14445.2687 E_vdwl   =   -131094.3362 
E_coul   =  13329502.5186 E_long   = -17418326.5774 Press    =       -21.9931 
Volume   =  19751188.9449 
---------------- Step     6500 ----- CPU =   7244.7249 (sec) ----------------
TotEng   =  -1613923.0320 KinEng   =   1379420.1634 Temp     =       300.5419 
PotEng   =  -2993343.1954 E_bond   =    165366.4963 E_angle  =    710336.5917 
E_dihed  =    336822.2265 E_impro  =     14441.8467 E_vdwl   =   -132156.3269 
E_coul   =  13330083.6676 E_long   = -17418237.6972 Press    =        -5.4382 
Volume   =  19751805.4525 
---------------- Step     6550 ----- CPU =   7300.0529 (sec) ----------------
TotEng   =  -1616835.3505 KinEng   =   1376855.9991 Temp     =       299.9832 
PotEng   =  -2993691.3497 E_bond   =    165659.7346 E_angle  =    709435.5865 
E_dihed  =    337104.3645 E_impro  =     14313.6604 E_vdwl   =   -131567.9555 
E_coul   =  13329577.7239 E_long   = -17418214.4640 Press    =       -44.1179 
Volume   =  19752267.4325 
---------------- Step     6600 ----- CPU =   7356.3974 (sec) ----------------
TotEng   =  -1619775.3523 KinEng   =   1375100.3362 Temp     =       299.6007 
PotEng   =  -2994875.6885 E_bond   =    164873.0249 E_angle  =    708970.0299 
E_dihed  =    336694.7673 E_impro  =     14336.0707 E_vdwl   =   -131948.1868 
E_coul   =  13330589.2243 E_long   = -17418390.6189 Press    =         5.6165 
Volume   =  19752329.1871 
---------------- Step     6650 ----- CPU =   7411.7506 (sec) ----------------
TotEng   =  -1619520.2257 KinEng   =   1375212.9946 Temp     =       299.6252 
PotEng   =  -2994733.2203 E_bond   =    165987.1070 E_angle  =    709575.3962 
E_dihed  =    337057.2941 E_impro  =     14359.8780 E_vdwl   =   -132901.6015 
E_coul   =  13329530.2431 E_long   = -17418341.5371 Press    =       -61.6059 
Volume   =  19751071.1972 
---------------- Step     6700 ----- CPU =   7468.0672 (sec) ----------------
TotEng   =  -1616871.5971 KinEng   =   1377550.8217 Temp     =       300.1346 
PotEng   =  -2994422.4189 E_bond   =    165677.2554 E_angle  =    709355.3681 
E_dihed  =    336906.0143 E_impro  =     14311.7414 E_vdwl   =   -130526.8102 
E_coul   =  13328245.9458 E_long   = -17418391.9339 Press    =         6.6721 
Volume   =  19747593.8211 
---------------- Step     6750 ----- CPU =   7524.5147 (sec) ----------------
TotEng   =  -1615372.8672 KinEng   =   1377164.5622 Temp     =       300.0504 
PotEng   =  -2992537.4294 E_bond   =    166100.0129 E_angle  =    710443.6396 
E_dihed  =    337370.9299 E_impro  =     14408.6759 E_vdwl   =   -130549.7968 
E_coul   =  13327953.8399 E_long   = -17418264.7308 Press    =         1.1480 
Volume   =  19744542.5191 
---------------- Step     6800 ----- CPU =   7579.8076 (sec) ----------------
TotEng   =  -1616435.5557 KinEng   =   1377671.7397 Temp     =       300.1609 
PotEng   =  -2994107.2954 E_bond   =    165346.4650 E_angle  =    710233.6582 
E_dihed  =    337244.4708 E_impro  =     14340.8113 E_vdwl   =   -130726.2846 
E_coul   =  13327672.8818 E_long   = -17418219.2979 Press    =        18.0279 
Volume   =  19742312.5352 
---------------- Step     6850 ----- CPU =   7636.2276 (sec) ----------------
TotEng   =  -1618656.3024 KinEng   =   1376712.0692 Temp     =       299.9519 
PotEng   =  -2995368.3716 E_bond   =    165178.6273 E_angle  =    709260.1219 
E_dihed  =    336951.3182 E_impro  =     14336.3763 E_vdwl   =   -131493.9196 
E_coul   =  13328721.3324 E_long   = -17418322.2282 Press    =        13.1846 
Volume   =  19741558.4372 
---------------- Step     6900 ----- CPU =   7691.5586 (sec) ----------------
TotEng   =  -1620131.3107 KinEng   =   1376304.7332 Temp     =       299.8631 
PotEng   =  -2996436.0440 E_bond   =    165123.3967 E_angle  =    710425.3940 
E_dihed  =    336846.8076 E_impro  =     14341.2405 E_vdwl   =   -131464.1100 
E_coul   =  13326579.1219 E_long   = -17418287.8946 Press    =       -35.0079 
Volume   =  19742360.0801 
---------------- Step     6950 ----- CPU =   7747.9730 (sec) ----------------
TotEng   =  -1619865.1905 KinEng   =   1376591.1717 Temp     =       299.9255 
PotEng   =  -2996456.3622 E_bond   =    165223.9881 E_angle  =    708678.8747 
E_dihed  =    337426.1091 E_impro  =     14405.5635 E_vdwl   =   -131607.7339 
E_coul   =  13327927.6823 E_long   = -17418510.8460 Press    =         6.3121 
Volume   =  19742483.1440 
---------------- Step     7000 ----- CPU =   7804.3277 (sec) ----------------
TotEng   =  -1617775.2442 KinEng   =   1378176.4009 Temp     =       300.2709 
PotEng   =  -2995951.6451 E_bond   =    165947.8840 E_angle  =    709213.7904 
E_dihed  =    337231.0747 E_impro  =     14358.6552 E_vdwl   =   -132300.3751 
E_coul   =  13327845.8778 E_long   = -17418248.5521 Press    =       -41.9169 
Volume   =  19742667.7507 
---------------- Step     7050 ----- CPU =   7859.6584 (sec) ----------------
TotEng   =  -1616656.8582 KinEng   =   1376325.7367 Temp     =       299.8677 
PotEng   =  -2992982.5949 E_bond   =    165936.1293 E_angle  =    711238.9002 
E_dihed  =    337231.6844 E_impro  =     14344.3175 E_vdwl   =   -132243.8225 
E_coul   =  13328868.8040 E_long   = -17418358.6079 Press    =       -38.7742 
Volume   =  19742756.9805 
---------------- Step     7100 ----- CPU =   7916.0259 (sec) ----------------
TotEng   =  -1616916.7929 KinEng   =   1377588.8467 Temp     =       300.1429 
PotEng   =  -2994505.6396 E_bond   =    165575.8970 E_angle  =    709521.6365 
E_dihed  =    337198.2721 E_impro  =     14471.3156 E_vdwl   =   -131342.5096 
E_coul   =  13328445.8024 E_long   = -17418376.0537 Press    =        23.4465 
Volume   =  19743978.4354 
---------------- Step     7150 ----- CPU =   7971.3120 (sec) ----------------
TotEng   =  -1617970.3366 KinEng   =   1376415.4122 Temp     =       299.8872 
PotEng   =  -2994385.7489 E_bond   =    165593.0454 E_angle  =    709168.8027 
E_dihed  =    336957.1451 E_impro  =     14409.3094 E_vdwl   =   -132222.5189 
E_coul   =  13329989.9583 E_long   = -17418281.4908 Press    =       -12.9419 
Volume   =  19746054.7036 
---------------- Step     7200 ----- CPU =   8027.6970 (sec) ----------------
TotEng   =  -1618516.9905 KinEng   =   1375604.2302 Temp     =       299.7105 
PotEng   =  -2994121.2207 E_bond   =    165854.5929 E_angle  =    710425.0917 
E_dihed  =    336985.4752 E_impro  =     14301.3444 E_vdwl   =   -133129.7628 
E_coul   =  13329740.8027 E_long   = -17418298.7648 Press    =       -31.9349 
Volume   =  19747976.9536 
---------------- Step     7250 ----- CPU =   8082.9157 (sec) ----------------
TotEng   =  -1618406.4603 KinEng   =   1376627.7793 Temp     =       299.9335 
PotEng   =  -2995034.2396 E_bond   =    166064.6511 E_angle  =    710800.4007 
E_dihed  =    336936.4107 E_impro  =     14440.4585 E_vdwl   =   -132304.9220 
E_coul   =  13327343.1210 E_long   = -17418314.3597 Press    =       -40.7185 
Volume   =  19748768.2195 
---------------- Step     7300 ----- CPU =   8139.3097 (sec) ----------------
TotEng   =  -1618478.3723 KinEng   =   1376176.9908 Temp     =       299.8353 
PotEng   =  -2994655.3631 E_bond   =    166099.4598 E_angle  =    709497.3082 
E_dihed  =    337079.3680 E_impro  =     14422.6736 E_vdwl   =   -131807.9525 
E_coul   =  13328358.3131 E_long   = -17418304.5334 Press    =       -42.7732 
Volume   =  19748082.5691 
---------------- Step     7350 ----- CPU =   8194.4873 (sec) ----------------
TotEng   =  -1618244.6608 KinEng   =   1375498.8370 Temp     =       299.6875 
PotEng   =  -2993743.4978 E_bond   =    165356.4556 E_angle  =    710489.1558 
E_dihed  =    337015.7672 E_impro  =     14460.8881 E_vdwl   =   -129932.4553 
E_coul   =  13327168.4392 E_long   = -17418301.7484 Press    =        80.3563 
Volume   =  19746928.0115 
---------------- Step     7400 ----- CPU =   8250.7790 (sec) ----------------
TotEng   =  -1617901.5681 KinEng   =   1377088.9250 Temp     =       300.0340 
PotEng   =  -2994990.4930 E_bond   =    166311.7347 E_angle  =    709899.9547 
E_dihed  =    337105.9845 E_impro  =     14495.9479 E_vdwl   =   -131177.7995 
E_coul   =  13326652.9856 E_long   = -17418279.3009 Press    =       -36.6784 
Volume   =  19746774.6111 
---------------- Step     7450 ----- CPU =   8306.0082 (sec) ----------------
TotEng   =  -1617999.2343 KinEng   =   1377083.2969 Temp     =       300.0327 
PotEng   =  -2995082.5311 E_bond   =    165157.2207 E_angle  =    709784.6977 
E_dihed  =    336865.7172 E_impro  =     14531.0387 E_vdwl   =   -130099.1844 
E_coul   =  13327105.7270 E_long   = -17418427.7480 Press    =        28.0510 
Volume   =  19747309.3294 
---------------- Step     7500 ----- CPU =   8362.4012 (sec) ----------------
TotEng   =  -1617905.0505 KinEng   =   1377338.1810 Temp     =       300.0883 
PotEng   =  -2995243.2316 E_bond   =    165972.4492 E_angle  =    709935.4916 
E_dihed  =    336684.2596 E_impro  =     14359.7651 E_vdwl   =   -130149.8815 
E_coul   =  13326263.1180 E_long   = -17418308.4336 Press    =       -20.6104 
Volume   =  19749043.8100 
---------------- Step     7550 ----- CPU =   8417.6766 (sec) ----------------
TotEng   =  -1617844.9798 KinEng   =   1375662.6602 Temp     =       299.7232 
PotEng   =  -2993507.6401 E_bond   =    166100.0808 E_angle  =    710952.2992 
E_dihed  =    337226.8969 E_impro  =     14347.8691 E_vdwl   =   -131674.0475 
E_coul   =  13327917.1458 E_long   = -17418377.8845 Press    =        -8.9708 
Volume   =  19750901.8031 
---------------- Step     7600 ----- CPU =   8472.8864 (sec) ----------------
TotEng   =  -1617877.1918 KinEng   =   1377165.4503 Temp     =       300.0506 
PotEng   =  -2995042.6421 E_bond   =    166446.6610 E_angle  =    710217.7310 
E_dihed  =    336883.1283 E_impro  =     14365.6137 E_vdwl   =   -131266.8095 
E_coul   =  13326721.7799 E_long   = -17418410.7465 Press    =       -67.5540 
Volume   =  19751721.8446 
---------------- Step     7650 ----- CPU =   8529.2401 (sec) ----------------
TotEng   =  -1618204.1060 KinEng   =   1377240.3731 Temp     =       300.0670 
PotEng   =  -2995444.4791 E_bond   =    165818.0792 E_angle  =    710291.4648 
E_dihed  =    336851.9606 E_impro  =     14503.5431 E_vdwl   =   -129486.0406 
E_coul   =  13324991.7310 E_long   = -17418415.2172 Press    =       -18.3471 
Volume   =  19751836.0625 
---------------- Step     7700 ----- CPU =   8585.6805 (sec) ----------------
TotEng   =  -1618961.5021 KinEng   =   1376774.8232 Temp     =       299.9655 
PotEng   =  -2995736.3253 E_bond   =    165289.2869 E_angle  =    709936.6510 
E_dihed  =    337074.5184 E_impro  =     14317.7038 E_vdwl   =   -130492.2468 
E_coul   =  13326455.3202 E_long   = -17418317.5588 Press    =       -22.1140 
Volume   =  19751793.7271 
---------------- Step     7750 ----- CPU =   8640.9078 (sec) ----------------
TotEng   =  -1619261.2183 KinEng   =   1376371.1486 Temp     =       299.8776 
PotEng   =  -2995632.3669 E_bond   =    165834.5527 E_angle  =    710070.0712 
E_dihed  =    336995.5629 E_impro  =     14514.7437 E_vdwl   =   -132398.8427 
E_coul   =  13327791.6947 E_long   = -17418440.1494 Press    =       -57.0309 
Volume   =  19750964.1207 
---------------- Step     7800 ----- CPU =   8696.1411 (sec) ----------------
TotEng   =  -1617908.2827 KinEng   =   1376505.1672 Temp     =       299.9068 
PotEng   =  -2994413.4498 E_bond   =    166197.5229 E_angle  =    710611.8497 
E_dihed  =    337354.9030 E_impro  =     14435.8198 E_vdwl   =   -131603.6622 
E_coul   =  13326945.7323 E_long   = -17418355.6155 Press    =       -68.2906 
Volume   =  19749032.0698 
---------------- Step     7850 ----- CPU =   8752.6121 (sec) ----------------
TotEng   =  -1616929.8091 KinEng   =   1377769.1311 Temp     =       300.1822 
PotEng   =  -2994698.9402 E_bond   =    165650.7173 E_angle  =    711467.8675 
E_dihed  =    336975.2572 E_impro  =     14360.4383 E_vdwl   =   -130832.3471 
E_coul   =  13326002.9454 E_long   = -17418323.8188 Press    =        -4.1643 
Volume   =  19744657.5824 
---------------- Step     7900 ----- CPU =   8809.0758 (sec) ----------------
TotEng   =  -1618078.1271 KinEng   =   1376769.4262 Temp     =       299.9644 
PotEng   =  -2994847.5533 E_bond   =    166077.1434 E_angle  =    711299.6197 
E_dihed  =    337031.0605 E_impro  =     14384.4884 E_vdwl   =   -129043.8495 
E_coul   =  13323645.4211 E_long   = -17418241.4369 Press    =       -35.4797 
Volume   =  19740847.9492 
---------------- Step     7950 ----- CPU =   8864.2384 (sec) ----------------
TotEng   =  -1620354.6284 KinEng   =   1376659.4822 Temp     =       299.9404 
PotEng   =  -2997014.1106 E_bond   =    166052.4621 E_angle  =    710646.3600 
E_dihed  =    337246.4692 E_impro  =     14403.5420 E_vdwl   =   -130380.6156 
E_coul   =  13323389.2587 E_long   = -17418371.5869 Press    =        10.6624 
Volume   =  19738018.9763 
---------------- Step     8000 ----- CPU =   8920.6494 (sec) ----------------
TotEng   =  -1621875.1202 KinEng   =   1375161.3210 Temp     =       299.6140 
PotEng   =  -2997036.4411 E_bond   =    165568.5366 E_angle  =    710614.7982 
E_dihed  =    336915.1280 E_impro  =     14350.6815 E_vdwl   =   -131175.0852 
E_coul   =  13325083.8949 E_long   = -17418394.3952 Press    =         8.7360 
Volume   =  19736484.4929 
---------------- Step     8050 ----- CPU =   8977.1116 (sec) ----------------
TotEng   =  -1621462.7150 KinEng   =   1377462.6757 Temp     =       300.1154 
PotEng   =  -2998925.3907 E_bond   =    165358.1304 E_angle  =    710676.2814 
E_dihed  =    336850.7515 E_impro  =     14366.8718 E_vdwl   =   -132102.7932 
E_coul   =  13324293.5854 E_long   = -17418368.2180 Press    =       -57.7565 
Volume   =  19735379.7069 
---------------- Step     8100 ----- CPU =   9032.3556 (sec) ----------------
TotEng   =  -1620451.4817 KinEng   =   1377751.4731 Temp     =       300.1783 
PotEng   =  -2998202.9548 E_bond   =    165937.2848 E_angle  =    710585.2919 
E_dihed  =    336522.3229 E_impro  =     14488.4965 E_vdwl   =   -132205.3176 
E_coul   =  13324832.5620 E_long   = -17418363.5953 Press    =       -38.5724 
Volume   =  19735026.8556 
---------------- Step     8150 ----- CPU =   9088.7673 (sec) ----------------
TotEng   =  -1620370.4914 KinEng   =   1377990.3189 Temp     =       300.2304 
PotEng   =  -2998360.8103 E_bond   =    165561.4912 E_angle  =    710325.0663 
E_dihed  =    336809.9341 E_impro  =     14389.9929 E_vdwl   =   -131951.6403 
E_coul   =  13324898.4209 E_long   = -17418394.0754 Press    =        -4.3579 
Volume   =  19734274.9625 
---------------- Step     8200 ----- CPU =   9144.0470 (sec) ----------------
TotEng   =  -1620098.3757 KinEng   =   1376570.1860 Temp     =       299.9209 
PotEng   =  -2996668.5618 E_bond   =    165792.8102 E_angle  =    710688.6077 
E_dihed  =    336979.9722 E_impro  =     14345.1428 E_vdwl   =   -130891.7959 
E_coul   =  13324764.4211 E_long   = -17418347.7199 Press    =        14.0158 
Volume   =  19732541.2903 
---------------- Step     8250 ----- CPU =   9199.3499 (sec) ----------------
TotEng   =  -1619653.7002 KinEng   =   1375856.1255 Temp     =       299.7654 
PotEng   =  -2995509.8256 E_bond   =    165957.1285 E_angle  =    711283.6558 
E_dihed  =    337227.2735 E_impro  =     14540.2189 E_vdwl   =   -129955.1199 
E_coul   =  13323851.6902 E_long   = -17418414.6726 Press    =        37.8047 
Volume   =  19730962.3480 
---------------- Step     8300 ----- CPU =   9255.7811 (sec) ----------------
TotEng   =  -1619346.3925 KinEng   =   1377453.7381 Temp     =       300.1134 
PotEng   =  -2996800.1306 E_bond   =    166195.4765 E_angle  =    709963.3132 
E_dihed  =    336333.0497 E_impro  =     14575.7358 E_vdwl   =   -132308.2898 
E_coul   =  13326893.3627 E_long   = -17418452.7787 Press    =       -34.1589 
Volume   =  19730299.3782 
---------------- Step     8350 ----- CPU =   9311.1315 (sec) ----------------
TotEng   =  -1619027.7095 KinEng   =   1377502.8966 Temp     =       300.1242 
PotEng   =  -2996530.6061 E_bond   =    165943.5200 E_angle  =    710451.6994 
E_dihed  =    336746.6136 E_impro  =     14385.0637 E_vdwl   =   -131361.2789 
E_coul   =  13325577.2454 E_long   = -17418273.4694 Press    =       -27.3635 
Volume   =  19730535.1925 
---------------- Step     8400 ----- CPU =   9367.4889 (sec) ----------------
TotEng   =  -1618934.8378 KinEng   =   1377626.2244 Temp     =       300.1510 
PotEng   =  -2996561.0623 E_bond   =    166068.3318 E_angle  =    711466.6746 
E_dihed  =    337015.2111 E_impro  =     14585.8596 E_vdwl   =   -130850.6945 
E_coul   =  13323463.5025 E_long   = -17418309.9474 Press    =       -49.0433 
Volume   =  19731761.4182 
---------------- Step     8450 ----- CPU =   9423.9211 (sec) ----------------
TotEng   =  -1619823.3557 KinEng   =   1377485.7566 Temp     =       300.1204 
PotEng   =  -2997309.1123 E_bond   =    165696.9284 E_angle  =    710224.3997 
E_dihed  =    337146.2581 E_impro  =     14461.7773 E_vdwl   =   -131451.3790 
E_coul   =  13324889.3163 E_long   = -17418276.4133 Press    =         1.4103 
Volume   =  19732894.9185 
---------------- Step     8500 ----- CPU =   9480.3344 (sec) ----------------
TotEng   =  -1620421.0269 KinEng   =   1376637.9349 Temp     =       299.9357 
PotEng   =  -2997058.9618 E_bond   =    165681.8854 E_angle  =    710084.4984 
E_dihed  =    337093.9585 E_impro  =     14499.4742 E_vdwl   =   -129550.1410 
E_coul   =  13323500.3652 E_long   = -17418369.0024 Press    =        35.3635 
Volume   =  19733853.4014 
---------------- Step     8550 ----- CPU =   9535.6470 (sec) ----------------
TotEng   =  -1619942.3448 KinEng   =   1377896.6920 Temp     =       300.2100 
PotEng   =  -2997839.0368 E_bond   =    166056.8292 E_angle  =    710561.5745 
E_dihed  =    337126.3841 E_impro  =     14294.3637 E_vdwl   =   -130800.4976 
E_coul   =  13323268.7548 E_long   = -17418346.4455 Press    =        -8.8131 
Volume   =  19735878.4040 
---------------- Step     8600 ----- CPU =   9592.0536 (sec) ----------------
TotEng   =  -1619785.0806 KinEng   =   1376442.8230 Temp     =       299.8932 
PotEng   =  -2996227.9036 E_bond   =    166362.1957 E_angle  =    710821.9866 
E_dihed  =    337187.3403 E_impro  =     14467.2823 E_vdwl   =   -131289.7216 
E_coul   =  13324632.2546 E_long   = -17418409.2415 Press    =       -20.5010 
Volume   =  19737466.9397 
---------------- Step     8650 ----- CPU =   9647.2208 (sec) ----------------
TotEng   =  -1620297.7619 KinEng   =   1377067.8495 Temp     =       300.0294 
PotEng   =  -2997365.6114 E_bond   =    165917.0691 E_angle  =    710443.2690 
E_dihed  =    336613.1769 E_impro  =     14384.1447 E_vdwl   =   -130740.8215 
E_coul   =  13324299.0081 E_long   = -17418281.4577 Press    =       -44.3068 
Volume   =  19738837.8262 
---------------- Step     8700 ----- CPU =   9703.6512 (sec) ----------------
TotEng   =  -1620684.9033 KinEng   =   1376517.6243 Temp     =       299.9095 
PotEng   =  -2997202.5276 E_bond   =    165721.2745 E_angle  =    710306.5223 
E_dihed  =    336771.1358 E_impro  =     14423.7869 E_vdwl   =   -129679.1177 
E_coul   =  13323561.7951 E_long   = -17418307.9245 Press    =       -41.2843 
Volume   =  19739965.0405 
---------------- Step     8750 ----- CPU =   9760.0875 (sec) ----------------
TotEng   =  -1620601.3888 KinEng   =   1376754.8467 Temp     =       299.9612 
PotEng   =  -2997356.2355 E_bond   =    166120.2103 E_angle  =    711290.6239 
E_dihed  =    336656.2668 E_impro  =     14157.0289 E_vdwl   =   -131561.7349 
E_coul   =  13324305.4464 E_long   = -17418324.0768 Press    =       -44.1886 
Volume   =  19740760.5822 
---------------- Step     8800 ----- CPU =   9815.3779 (sec) ----------------
TotEng   =  -1620378.6436 KinEng   =   1377705.1681 Temp     =       300.1682 
PotEng   =  -2998083.8117 E_bond   =    165546.9687 E_angle  =    711718.1637 
E_dihed  =    336549.5597 E_impro  =     14384.7365 E_vdwl   =   -131578.6412 
E_coul   =  13323726.1966 E_long   = -17418430.7956 Press    =       -31.5487 
Volume   =  19740841.0547 
---------------- Step     8850 ----- CPU =   9871.7730 (sec) ----------------
TotEng   =  -1620004.0093 KinEng   =   1375791.6811 Temp     =       299.7513 
PotEng   =  -2995795.6904 E_bond   =    165868.8629 E_angle  =    711540.1219 
E_dihed  =    336878.3642 E_impro  =     14418.3884 E_vdwl   =   -130060.7455 
E_coul   =  13323917.1255 E_long   = -17418357.8078 Press    =        -1.1192 
Volume   =  19739605.2940 
---------------- Step     8900 ----- CPU =   9927.0083 (sec) ----------------
TotEng   =  -1619509.2982 KinEng   =   1377325.3749 Temp     =       300.0855 
PotEng   =  -2996834.6731 E_bond   =    165550.7245 E_angle  =    711402.3173 
E_dihed  =    336858.3124 E_impro  =     14435.7720 E_vdwl   =   -130763.5418 
E_coul   =  13324036.7823 E_long   = -17418355.0397 Press    =        -7.4841 
Volume   =  19738655.9582 
---------------- Step     8950 ----- CPU =   9983.4716 (sec) ----------------
TotEng   =  -1619951.0463 KinEng   =   1378167.4187 Temp     =       300.2689 
PotEng   =  -2998118.4650 E_bond   =    166233.8585 E_angle  =    711006.6716 
E_dihed  =    336478.3865 E_impro  =     14250.7761 E_vdwl   =   -131086.2244 
E_coul   =  13323370.1978 E_long   = -17418372.1312 Press    =       -52.3439 
Volume   =  19737611.8295 
---------------- Step     9000 ----- CPU =  10038.7927 (sec) ----------------
TotEng   =  -1621128.5278 KinEng   =   1375886.4802 Temp     =       299.7720 
PotEng   =  -2997015.0079 E_bond   =    165762.6721 E_angle  =    711421.0022 
E_dihed  =    336692.7973 E_impro  =     14424.6479 E_vdwl   =   -131252.4010 
E_coul   =  13324303.4909 E_long   = -17418367.2173 Press    =        -0.3388 
Volume   =  19736597.5714 
---------------- Step     9050 ----- CPU =  10095.1121 (sec) ----------------
TotEng   =  -1621627.8112 KinEng   =   1376537.1813 Temp     =       299.9138 
PotEng   =  -2998164.9925 E_bond   =    165989.7710 E_angle  =    710948.5597 
E_dihed  =    336479.8636 E_impro  =     14449.0380 E_vdwl   =   -130567.0916 
E_coul   =  13322809.2275 E_long   = -17418274.3608 Press    =       -42.8002 
Volume   =  19735904.0303 
---------------- Step     9100 ----- CPU =  10150.4176 (sec) ----------------
TotEng   =  -1621446.2398 KinEng   =   1376484.1396 Temp     =       299.9022 
PotEng   =  -2997930.3794 E_bond   =    166134.3784 E_angle  =    711125.4920 
E_dihed  =    336679.6157 E_impro  =     14358.2239 E_vdwl   =   -129168.8353 
E_coul   =  13321256.1042 E_long   = -17418315.3582 Press    =       -28.5988 
Volume   =  19734497.5935 
---------------- Step     9150 ----- CPU =  10205.7725 (sec) ----------------
TotEng   =  -1620736.2253 KinEng   =   1376625.3208 Temp     =       299.9330 
PotEng   =  -2997361.5460 E_bond   =    166112.5477 E_angle  =    711638.7946 
E_dihed  =    336715.4114 E_impro  =     14428.7785 E_vdwl   =   -128653.9658 
E_coul   =  13320694.4821 E_long   = -17418297.5946 Press    =        60.4243 
Volume   =  19733481.2713 
---------------- Step     9200 ----- CPU =  10262.2009 (sec) ----------------
TotEng   =  -1621074.7132 KinEng   =   1376925.6223 Temp     =       299.9984 
PotEng   =  -2998000.3355 E_bond   =    166191.2122 E_angle  =    710756.8877 
E_dihed  =    336537.3383 E_impro  =     14353.7989 E_vdwl   =   -129980.6240 
E_coul   =  13322487.6596 E_long   = -17418346.6082 Press    =        19.1445 
Volume   =  19734591.3267 
---------------- Step     9250 ----- CPU =  10318.6345 (sec) ----------------
TotEng   =  -1621691.6059 KinEng   =   1376384.8938 Temp     =       299.8806 
PotEng   =  -2998076.4997 E_bond   =    165812.3645 E_angle  =    712116.6689 
E_dihed  =    336239.5835 E_impro  =     14267.9687 E_vdwl   =   -131882.0423 
E_coul   =  13323610.6362 E_long   = -17418241.6794 Press    =       -19.7668 
Volume   =  19735925.0686 
---------------- Step     9300 ----- CPU =  10375.1208 (sec) ----------------
TotEng   =  -1621772.3497 KinEng   =   1376034.1972 Temp     =       299.8042 
PotEng   =  -2997806.5468 E_bond   =    165414.4340 E_angle  =    711487.1375 
E_dihed  =    337089.4216 E_impro  =     14563.0621 E_vdwl   =   -130983.8594 
E_coul   =  13322911.4158 E_long   = -17418288.1584 Press    =       -30.4702 
Volume   =  19736444.3531 
---------------- Step     9350 ----- CPU =  10430.4375 (sec) ----------------
TotEng   =  -1620909.7122 KinEng   =   1376389.2315 Temp     =       299.8815 
PotEng   =  -2997298.9437 E_bond   =    165941.0945 E_angle  =    712498.2223 
E_dihed  =    336686.4745 E_impro  =     14421.0792 E_vdwl   =   -131565.4068 
E_coul   =  13322979.2720 E_long   = -17418259.6795 Press    =       -26.8241 
Volume   =  19735123.9437 
---------------- Step     9400 ----- CPU =  10486.7925 (sec) ----------------
TotEng   =  -1620622.8659 KinEng   =   1376610.8229 Temp     =       299.9298 
PotEng   =  -2997233.6888 E_bond   =    165884.8773 E_angle  =    711571.3063 
E_dihed  =    337119.8906 E_impro  =     14511.3904 E_vdwl   =   -129776.1338 
E_coul   =  13321728.6230 E_long   = -17418273.6427 Press    =        23.2502 
Volume   =  19733702.1755 
---------------- Step     9450 ----- CPU =  10543.1965 (sec) ----------------
TotEng   =  -1620755.0339 KinEng   =   1377079.5074 Temp     =       300.0319 
PotEng   =  -2997834.5414 E_bond   =    166134.3117 E_angle  =    711701.2931 
E_dihed  =    336694.1093 E_impro  =     14359.5541 E_vdwl   =   -130599.7866 
E_coul   =  13322209.5196 E_long   = -17418333.5425 Press    =         8.0099 
Volume   =  19734314.2436 
---------------- Step     9500 ----- CPU =  10599.6368 (sec) ----------------
TotEng   =  -1620661.9241 KinEng   =   1376105.1743 Temp     =       299.8196 
PotEng   =  -2996767.0985 E_bond   =    166575.3592 E_angle  =    711215.8249 
E_dihed  =    336981.0870 E_impro  =     14436.8142 E_vdwl   =   -130248.9423 
E_coul   =  13322600.2607 E_long   = -17418327.5022 Press    =       -29.7815 
Volume   =  19734892.4597 
---------------- Step     9550 ----- CPU =  10654.9235 (sec) ----------------
TotEng   =  -1620424.0337 KinEng   =   1376616.2581 Temp     =       299.9310 
PotEng   =  -2997040.2918 E_bond   =    165855.9194 E_angle  =    710706.9090 
E_dihed  =    336933.1377 E_impro  =     14436.5098 E_vdwl   =   -130514.0653 
E_coul   =  13323870.5403 E_long   = -17418329.2427 Press    =        -5.9388 
Volume   =  19735662.9773 
---------------- Step     9600 ----- CPU =  10711.3287 (sec) ----------------
TotEng   =  -1620288.9351 KinEng   =   1376601.9464 Temp     =       299.9279 
PotEng   =  -2996890.8815 E_bond   =    166306.5156 E_angle  =    711643.4427 
E_dihed  =    336887.3619 E_impro  =     14425.4288 E_vdwl   =   -129881.1320 
E_coul   =  13322047.6841 E_long   = -17418320.1826 Press    =       -24.6563 
Volume   =  19736771.8527 
---------------- Step     9650 ----- CPU =  10767.7750 (sec) ----------------
TotEng   =  -1620485.7103 KinEng   =   1377147.9531 Temp     =       300.0468 
PotEng   =  -2997633.6634 E_bond   =    166006.0123 E_angle  =    711483.4633 
E_dihed  =    336982.1852 E_impro  =     14381.1334 E_vdwl   =   -131513.3552 
E_coul   =  13323342.7445 E_long   = -17418315.8470 Press    =       -22.8696 
Volume   =  19737394.8081 
---------------- Step     9700 ----- CPU =  10823.0588 (sec) ----------------
TotEng   =  -1620850.6504 KinEng   =   1376278.0820 Temp     =       299.8573 
PotEng   =  -2997128.7324 E_bond   =    166442.0186 E_angle  =    711566.6275 
E_dihed  =    336828.0735 E_impro  =     14350.7175 E_vdwl   =   -132725.0994 
E_coul   =  13324638.7744 E_long   = -17418229.8446 Press    =       -83.0689 
Volume   =  19737234.7575 
---------------- Step     9750 ----- CPU =  10879.4709 (sec) ----------------
TotEng   =  -1620494.0201 KinEng   =   1377265.9886 Temp     =       300.0725 
PotEng   =  -2997760.0087 E_bond   =    166846.4907 E_angle  =    710773.4745 
E_dihed  =    336717.7875 E_impro  =     14422.7502 E_vdwl   =   -132703.9676 
E_coul   =  13324588.9128 E_long   = -17418405.4568 Press    =       -42.5627 
Volume   =  19734170.8913 
---------------- Step     9800 ----- CPU =  10935.9530 (sec) ----------------
TotEng   =  -1619904.4954 KinEng   =   1378867.2742 Temp     =       300.4214 
PotEng   =  -2998771.7696 E_bond   =    166251.9040 E_angle  =    710845.1907 
E_dihed  =    337405.8154 E_impro  =     14346.5053 E_vdwl   =   -130762.1644 
E_coul   =  13321437.6136 E_long   = -17418296.6342 Press    =       -53.7680 
Volume   =  19730459.2133 
---------------- Step     9850 ----- CPU =  10991.2077 (sec) ----------------
TotEng   =  -1620752.6938 KinEng   =   1376779.4016 Temp     =       299.9665 
PotEng   =  -2997532.0954 E_bond   =    166277.5891 E_angle  =    711609.2381 
E_dihed  =    336945.7046 E_impro  =     14371.6465 E_vdwl   =   -129581.3903 
E_coul   =  13321133.8142 E_long   = -17418288.6975 Press    =         6.0958 
Volume   =  19727366.3408 
---------------- Step     9900 ----- CPU =  11047.7186 (sec) ----------------
TotEng   =  -1622575.8145 KinEng   =   1375523.8058 Temp     =       299.6930 
PotEng   =  -2998099.6202 E_bond   =    165850.8091 E_angle  =    711959.3604 
E_dihed  =    336903.2048 E_impro  =     14408.5082 E_vdwl   =   -131657.8718 
E_coul   =  13322754.3287 E_long   = -17418317.9594 Press    =       -39.1949 
Volume   =  19724499.1271 
---------------- Step     9950 ----- CPU =  11103.0993 (sec) ----------------
TotEng   =  -1623146.4149 KinEng   =   1375971.4391 Temp     =       299.7905 
PotEng   =  -2999117.8540 E_bond   =    166140.1368 E_angle  =    711604.2268 
E_dihed  =    335999.6535 E_impro  =     14281.6458 E_vdwl   =   -131559.1408 
E_coul   =  13322726.9132 E_long   = -17418311.2893 Press    =        -4.4596 
Volume   =  19722178.9255 
---------------- Step    10000 ----- CPU =  11159.5978 (sec) ----------------
TotEng   =  -1622453.3991 KinEng   =   1377427.0598 Temp     =       300.1076 
PotEng   =  -2999880.4589 E_bond   =    166098.4259 E_angle  =    711807.9626 
E_dihed  =    336685.0639 E_impro  =     14357.9813 E_vdwl   =   -131843.2732 
E_coul   =  13321400.8675 E_long   = -17418387.4869 Press    =       -29.6805 
Volume   =  19721560.3795 
Loop time of 11159.6 on 4 procs for 10000 steps with 2048000 atoms

Performance: 0.155 ns/day, 154.994 hours/ns, 0.896 timesteps/s
99.8% CPU use with 4 MPI tasks x 1 OpenMP threads

MPI task timing breakdown:
Section |  min time  |  avg time  |  max time  |%varavg| %total
---------------------------------------------------------------
Pair    | 6978.8     | 7000       | 7016.9     |  18.3 | 62.73
Bond    | 451.5      | 452.29     | 453.59     |   3.7 |  4.05
Kspace  | 1103.8     | 1120.6     | 1142.2     |  47.5 | 10.04
Neigh   | 1063.7     | 1064.8     | 1065.7     |   2.8 |  9.54
Comm    | 448.84     | 449.6      | 450.05     |   2.2 |  4.03
Output  | 0.18337    | 0.18586    | 0.18807    |   0.4 |  0.00
Modify  | 1040.3     | 1042.6     | 1045.2     |   6.4 |  9.34
Other   |            | 29.58      |            |       |  0.27

Nlocal:         512000 ave      512310 max      511785 min
Histogram: 1 0 1 1 0 0 0 0 0 1
Nghost:         251766 ave      251849 max      251635 min
Histogram: 1 0 0 0 0 0 1 0 1 1
Neighs:    1.92427e+08 ave 1.92577e+08 max 1.92262e+08 min
Histogram: 1 0 0 0 1 0 1 0 0 1

Total # of neighbors = 7.6970762e+08
Ave neighs/atom = 375.8338
Ave special neighs/atom = 7.431875
Neighbor list builds = 1323
Dangerous builds = 0
Total wall time: 3:06:03
Intel(R) VTune(TM) Profiler 2022.2.0 collection completed successfully. Use the "aps --report /home/ubuntu/lammps/bench/aps_result_20220704" command to generate textual and HTML reports for the profiling session.
