LAMMPS (7 Jan 2022)
  using 1 OpenMP thread(s) per MPI task
Reading data file ...
  orthogonal box = (-27.5 -38.5 -36.3646) to (27.5 38.5 36.3615)
  2 by 2 by 2 MPI processor grid
  reading atoms ...
  32000 atoms
  reading velocities ...
  32000 velocities
  scanning bonds ...
  4 = max bonds/atom
  scanning angles ...
  8 = max angles/atom
  scanning dihedrals ...
  18 = max dihedrals/atom
  scanning impropers ...
  2 = max impropers/atom
  reading bonds ...
  27723 bonds
  reading angles ...
  40467 angles
  reading dihedrals ...
  56829 dihedrals
  reading impropers ...
  1034 impropers
Finding 1-2 1-3 1-4 neighbors ...
  special bond factors lj:    0        0        0       
  special bond factors coul:  0        0        0       
     4 = max # of 1-2 neighbors
    12 = max # of 1-3 neighbors
    24 = max # of 1-4 neighbors
    26 = max # of special neighbors
  special bonds CPU = 0.006 seconds
  read_data CPU = 0.234 seconds
Replicating atoms ...
  orthogonal box = (-27.5 -38.5 -36.3646) to (137.5 192.5 181.8137)
  2 by 2 by 2 MPI processor grid
  864000 atoms
  748521 bonds
  1092609 angles
  1534383 dihedrals
  27918 impropers
Finding 1-2 1-3 1-4 neighbors ...
  special bond factors lj:    0        0        0       
  special bond factors coul:  0        0        0       
     4 = max # of 1-2 neighbors
    12 = max # of 1-3 neighbors
    24 = max # of 1-4 neighbors
    26 = max # of special neighbors
  special bonds CPU = 0.109 seconds
  replicate CPU = 0.230 seconds
Finding SHAKE clusters ...
   43659 = # of size 2 clusters
   98091 = # of size 3 clusters
   20169 = # of size 4 clusters
  114291 = # of frozen angles
  find clusters CPU = 0.050 seconds
PPPM initialization ...
  using 12-bit tables for long-range coulomb (../kspace.cpp:340)
  G vector (1/distance) = 0.25235202
  grid = 72 90 90
  stencil order = 7
  estimated absolute RMS force accuracy = 0.029803316
  estimated relative force accuracy = 8.9751802e-05
  using single precision MKL FFT
  3d grid and FFT values/proc = 116272 77760
----------------------------------------------------------
Using INTEL Package without Coprocessor.
Compiler: Intel Classic C++ 20.21.5 / Intel(R) C++ g++ 9.3 mode
SIMD compiler directives: Enabled
Precision: double
----------------------------------------------------------
  generated 2278 of 2278 mixed pair_coeff terms from arithmetic mixing rule
Neighbor list info ...
  update every 1 steps, delay 5 steps, check yes
  max neighbors/atom: 2000, page size: 100000
  master list distance cutoff = 12
  ghost atom cutoff = 12
  binsize = 6, bins = 28 39 37
  1 neighbor lists, perpetual/occasional/extra = 1 0 0
  (1) pair lj/charmm/coul/long/intel, perpetual
      attributes: half, newton on, intel
      pair build: half/bin/newton/intel
      stencil: half/bin/3d
      bin: intel
Setting up Verlet run ...
  Unit style    : real
  Current step  : 0
  Time step     : 2
Per MPI rank memory allocation (min/avg/max) = 1171 | 1175 | 1179 Mbytes
---------------- Step        0 ----- CPU =      0.0000 (sec) ----------------
TotEng   =   -684670.9566 KinEng   =    579010.4447 Temp     =       299.0277 
PotEng   =  -1263681.4012 E_bond   =     68525.8383 E_angle  =    294877.1036 
E_dihed  =    140718.2355 E_impro  =      5764.8128 E_vdwl   =    -62312.3122 
E_coul   =   5692538.1567 E_long   =  -7403793.2359 Press    =      -148.6832 
Volume   =   8315865.9045 
---------------- Step       50 ----- CPU =     15.0690 (sec) ----------------
TotEng   =   -683945.6558 KinEng   =    580525.8124 Temp     =       299.8103 
PotEng   =  -1264471.4681 E_bond   =     66737.5808 E_angle  =    292591.3997 
E_dihed  =    141470.6784 E_impro  =      6132.4692 E_vdwl   =    -53811.5413 
E_coul   =   5686393.0207 E_long   =  -7403985.0756 Press    =       238.8970 
Volume   =   8316862.5941 
---------------- Step      100 ----- CPU =     29.9225 (sec) ----------------
TotEng   =   -682828.4825 KinEng   =    582914.8429 Temp     =       301.0441 
PotEng   =  -1265743.3254 E_bond   =     69335.3119 E_angle  =    291121.5273 
E_dihed  =    140366.2564 E_impro  =      5852.7803 E_vdwl   =    -51271.5893 
E_coul   =   5682697.2521 E_long   =  -7403844.8640 Press    =        14.5554 
Volume   =   8319656.0620 
Loop time of 29.9225 on 8 procs for 100 steps with 864000 atoms

Performance: 0.577 ns/day, 41.559 hours/ns, 3.342 timesteps/s
99.4% CPU use with 8 MPI tasks x 1 OpenMP threads

MPI task timing breakdown:
Section |  min time  |  avg time  |  max time  |%varavg| %total
---------------------------------------------------------------
Pair    | 19.413     | 19.696     | 20.132     |   4.7 | 65.82
Bond    | 1.0599     | 1.0814     | 1.1019     |   1.5 |  3.61
Kspace  | 3.7202     | 4.1337     | 4.4241     |  10.3 | 13.81
Neigh   | 2.0067     | 2.0081     | 2.0091     |   0.0 |  6.71
Comm    | 0.83727    | 0.85137    | 0.8582     |   0.8 |  2.85
Output  | 0.00040051 | 0.0004222  | 0.00047088 |   0.0 |  0.00
Modify  | 2.0478     | 2.0618     | 2.0933     |   1.2 |  6.89
Other   |            | 0.08957    |            |       |  0.30

Nlocal:         108000 ave      108538 max      107588 min
Histogram: 1 2 0 1 2 0 0 0 1 1
Nghost:        96691.9 ave       97130 max       96237 min
Histogram: 1 0 2 1 1 0 0 1 0 2
Neighs:    4.05948e+07 ave 4.09096e+07 max  4.0363e+07 min
Histogram: 1 2 0 2 1 0 0 0 0 2

Total # of neighbors = 3.2475846e+08
Ave neighs/atom = 375.87784
Ave special neighs/atom = 7.431875
Neighbor list builds = 11
Dangerous builds = 0
Total wall time: 0:00:31
Intel(R) VTune(TM) Profiler 2022.2.0 collection completed successfully. Use the "aps --report /home/ubuntu/lammps/bench/aps_result_20220601" command to generate textual and HTML reports for the profiling session.
