LAMMPS (7 Jan 2022)
  using 1 OpenMP thread(s) per MPI task
Reading data file ...
  orthogonal box = (-27.5 -38.5 -36.3646) to (27.5 38.5 36.3615)
  2 by 4 by 2 MPI processor grid
  reading atoms ...
  32000 atoms
  reading velocities ...
  32000 velocities
  scanning bonds ...
  4 = max bonds/atom
  scanning angles ...
  8 = max angles/atom
  scanning dihedrals ...
  18 = max dihedrals/atom
  scanning impropers ...
  2 = max impropers/atom
  reading bonds ...
  27723 bonds
  reading angles ...
  40467 angles
  reading dihedrals ...
  56829 dihedrals
  reading impropers ...
  1034 impropers
Finding 1-2 1-3 1-4 neighbors ...
  special bond factors lj:    0        0        0       
  special bond factors coul:  0        0        0       
     4 = max # of 1-2 neighbors
    12 = max # of 1-3 neighbors
    24 = max # of 1-4 neighbors
    26 = max # of special neighbors
  special bonds CPU = 0.003 seconds
  read_data CPU = 0.230 seconds
Finding SHAKE clusters ...
    1617 = # of size 2 clusters
    3633 = # of size 3 clusters
     747 = # of size 4 clusters
    4233 = # of frozen angles
  find clusters CPU = 0.002 seconds
PPPM initialization ...
  using 12-bit tables for long-range coulomb (../kspace.cpp:340)
  G vector (1/distance) = 0.25235202
  grid = 24 30 30
  stencil order = 7
  estimated absolute RMS force accuracy = 0.029803316
  estimated relative force accuracy = 8.9751802e-05
  using single precision MKL FFT
  3d grid and FFT values/proc = 6270 1440
----------------------------------------------------------
Using INTEL Package without Coprocessor.
Compiler: Intel Classic C++ 20.21.5 / Intel(R) C++ g++ 9.3 mode
SIMD compiler directives: Enabled
Precision: mixed
----------------------------------------------------------
  generated 2278 of 2278 mixed pair_coeff terms from arithmetic mixing rule
Neighbor list info ...
  update every 1 steps, delay 5 steps, check yes
  max neighbors/atom: 2000, page size: 100000
  master list distance cutoff = 12
  ghost atom cutoff = 12
  binsize = 6, bins = 10 13 13
  1 neighbor lists, perpetual/occasional/extra = 1 0 0
  (1) pair lj/charmm/coul/long/intel, perpetual
      attributes: half, newton on, intel
      pair build: half/bin/newton/intel
      stencil: half/bin/3d
      bin: intel
Setting up Verlet run ...
  Unit style    : real
  Current step  : 0
  Time step     : 2
Per MPI rank memory allocation (min/avg/max) = 36.13 | 36.67 | 37.34 Mbytes
---------------- Step        0 ----- CPU =      0.0000 (sec) ----------------
TotEng   =    -25358.1687 KinEng   =     21444.8313 Temp     =       299.0397 
PotEng   =    -46803.0000 E_bond   =      2537.9949 E_angle  =     10921.3721 
E_dihed  =      5211.7865 E_impro  =       213.5135 E_vdwl   =     -2307.8639 
E_coul   =    210834.7641 E_long   =   -274214.5673 Press    =      -148.6999 
Volume   =    307995.0335 
---------------- Step       50 ----- CPU =      0.3004 (sec) ----------------
TotEng   =    -25332.0732 KinEng   =     21500.5592 Temp     =       299.8168 
PotEng   =    -46832.6324 E_bond   =      2471.7234 E_angle  =     10836.5751 
E_dihed  =      5239.6313 E_impro  =       227.1231 E_vdwl   =     -1993.0581 
E_coul   =    210607.0482 E_long   =   -274221.6754 Press    =       238.8345 
Volume   =    308031.9402 
---------------- Step      100 ----- CPU =      0.6035 (sec) ----------------
TotEng   =    -25292.3216 KinEng   =     21588.2643 Temp     =       301.0398 
PotEng   =    -46880.5860 E_bond   =      2567.8727 E_angle  =     10781.8269 
E_dihed  =      5198.6630 E_impro  =       216.7715 E_vdwl   =     -1899.0496 
E_coul   =    210469.7933 E_long   =   -274216.4636 Press    =        14.2895 
Volume   =    308135.3247 
---------------- Step      150 ----- CPU =      0.9046 (sec) ----------------
TotEng   =    -25260.1915 KinEng   =     21534.2318 Temp     =       300.2863 
PotEng   =    -46794.4234 E_bond   =      2556.6810 E_angle  =     10854.0639 
E_dihed  =      5264.4402 E_impro  =       203.0062 E_vdwl   =     -2074.2836 
E_coul   =    210608.0526 E_long   =   -274206.3837 Press    =       243.9238 
Volume   =    308518.6139 
---------------- Step      200 ----- CPU =      1.1997 (sec) ----------------
TotEng   =    -25078.6813 KinEng   =     21541.0867 Temp     =       300.3819 
PotEng   =    -46619.7679 E_bond   =      2489.3676 E_angle  =     11075.6219 
E_dihed  =      5221.5759 E_impro  =       232.4638 E_vdwl   =     -2148.3288 
E_coul   =    210714.9333 E_long   =   -274205.4016 Press    =        41.0086 
Volume   =    308999.3951 
---------------- Step      250 ----- CPU =      1.4984 (sec) ----------------
TotEng   =    -24960.6904 KinEng   =     21534.2454 Temp     =       300.2865 
PotEng   =    -46494.9358 E_bond   =      2541.5526 E_angle  =     11095.1089 
E_dihed  =      5245.4136 E_impro  =       213.4041 E_vdwl   =     -2164.0445 
E_coul   =    210796.7493 E_long   =   -274223.1197 Press    =      -155.2029 
Volume   =    309392.6142 
---------------- Step      300 ----- CPU =      1.7936 (sec) ----------------
TotEng   =    -25028.7539 KinEng   =     21524.2113 Temp     =       300.1466 
PotEng   =    -46552.9652 E_bond   =      2560.3564 E_angle  =     10925.9222 
E_dihed  =      5220.4232 E_impro  =       224.4588 E_vdwl   =     -2163.8779 
E_coul   =    210888.1321 E_long   =   -274208.3801 Press    =      -377.6695 
Volume   =    309705.3421 
---------------- Step      350 ----- CPU =      2.0925 (sec) ----------------
TotEng   =    -25148.3689 KinEng   =     21594.0649 Temp     =       301.1207 
PotEng   =    -46742.4338 E_bond   =      2580.3972 E_angle  =     10957.2332 
E_dihed  =      5250.5264 E_impro  =       208.9820 E_vdwl   =     -2012.3481 
E_coul   =    210494.7282 E_long   =   -274221.9527 Press    =      -305.1549 
Volume   =    309852.4474 
---------------- Step      400 ----- CPU =      2.3858 (sec) ----------------
TotEng   =    -25297.5349 KinEng   =     21404.3488 Temp     =       298.4752 
PotEng   =    -46701.8837 E_bond   =      2538.1372 E_angle  =     10922.0996 
E_dihed  =      5215.5619 E_impro  =       216.1963 E_vdwl   =     -1999.7317 
E_coul   =    210618.8178 E_long   =   -274212.9648 Press    =       258.3866 
Volume   =    309918.0955 
---------------- Step      450 ----- CPU =      2.6817 (sec) ----------------
TotEng   =    -25333.0560 KinEng   =     21454.9979 Temp     =       299.1814 
PotEng   =    -46788.0540 E_bond   =      2497.7796 E_angle  =     10905.1979 
E_dihed  =      5275.8171 E_impro  =       221.1863 E_vdwl   =     -2170.4832 
E_coul   =    210686.7458 E_long   =   -274204.2974 Press    =       154.6264 
Volume   =    310047.5296 
---------------- Step      500 ----- CPU =      2.9691 (sec) ----------------
TotEng   =    -25127.0947 KinEng   =     21514.3599 Temp     =       300.0092 
PotEng   =    -46641.4546 E_bond   =      2590.7082 E_angle  =     10910.2104 
E_dihed  =      5236.8757 E_impro  =       223.0150 E_vdwl   =     -2155.1239 
E_coul   =    210755.5468 E_long   =   -274202.6867 Press    =      -204.2283 
Volume   =    310115.6639 
---------------- Step      550 ----- CPU =      3.2584 (sec) ----------------
TotEng   =    -24902.0347 KinEng   =     21572.2859 Temp     =       300.8170 
PotEng   =    -46474.3207 E_bond   =      2565.2477 E_angle  =     10964.8729 
E_dihed  =      5211.1277 E_impro  =       239.9794 E_vdwl   =     -2149.3946 
E_coul   =    210904.7453 E_long   =   -274210.8991 Press    =       282.7157 
Volume   =    310121.3927 
---------------- Step      600 ----- CPU =      3.5391 (sec) ----------------
TotEng   =    -24812.6230 KinEng   =     21722.5225 Temp     =       302.9120 
PotEng   =    -46535.1455 E_bond   =      2520.7961 E_angle  =     11009.7844 
E_dihed  =      5265.1465 E_impro  =       220.3919 E_vdwl   =     -2230.9955 
E_coul   =    210900.1814 E_long   =   -274220.4504 Press    =        12.6409 
Volume   =    310191.0574 
Loop time of 3.53913 on 16 procs for 600 steps with 32000 atoms

Performance: 29.295 ns/day, 0.819 hours/ns, 169.533 timesteps/s
97.5% CPU use with 16 MPI tasks x 1 OpenMP threads

MPI task timing breakdown:
Section |  min time  |  avg time  |  max time  |%varavg| %total
---------------------------------------------------------------
Pair    | 1.6202     | 1.978      | 2.1276     |   9.9 | 55.89
Bond    | 0.090682   | 0.11909    | 0.14105    |   3.9 |  3.36
Kspace  | 0.59229    | 0.73255    | 1.1212     |  17.5 | 20.70
Neigh   | 0.26715    | 0.26793    | 0.26969    |   0.1 |  7.57
Comm    | 0.15708    | 0.16169    | 0.17699    |   1.4 |  4.57
Output  | 0.00053369 | 0.00055375 | 0.00077187 |   0.0 |  0.02
Modify  | 0.21978    | 0.26025    | 0.27012    |   2.9 |  7.35
Other   |            | 0.01907    |            |       |  0.54

Nlocal:           2000 ave        2037 max        1954 min
Histogram: 1 1 1 4 1 0 1 2 3 2
Nghost:        11823.9 ave       11933 max       11745 min
Histogram: 3 1 1 0 5 4 1 0 0 1
Neighs:         746756 ave      767600 max      721714 min
Histogram: 1 3 0 3 0 2 0 2 2 3

Total # of neighbors = 11948103
Ave neighs/atom = 373.37822
Ave special neighs/atom = 7.431875
Neighbor list builds = 66
Dangerous builds = 0
Total wall time: 0:00:03
Intel(R) VTune(TM) Profiler 2022.2.0 collection completed successfully. Use the "aps --report /home/ubuntu/lammps/bench/aps_result_20220601" command to generate textual and HTML reports for the profiling session.
