LAMMPS (7 Jan 2022)
  using 1 OpenMP thread(s) per MPI task
Reading data file ...
  orthogonal box = (-27.5 -38.5 -36.3646) to (27.5 38.5 36.3615)
  2 by 4 by 4 MPI processor grid
  reading atoms ...
  32000 atoms
  reading velocities ...
  32000 velocities
  scanning bonds ...
  4 = max bonds/atom
  scanning angles ...
  8 = max angles/atom
  scanning dihedrals ...
  18 = max dihedrals/atom
  scanning impropers ...
  2 = max impropers/atom
  reading bonds ...
  27723 bonds
  reading angles ...
  40467 angles
  reading dihedrals ...
  56829 dihedrals
  reading impropers ...
  1034 impropers
Finding 1-2 1-3 1-4 neighbors ...
  special bond factors lj:    0        0        0       
  special bond factors coul:  0        0        0       
     4 = max # of 1-2 neighbors
    12 = max # of 1-3 neighbors
    24 = max # of 1-4 neighbors
    26 = max # of special neighbors
  special bonds CPU = 0.005 seconds
  read_data CPU = 0.262 seconds
Replicating atoms ...
  orthogonal box = (-27.5 -38.5 -36.3646) to (137.5 192.5 181.8137)
  2 by 4 by 4 MPI processor grid
  864000 atoms
  748521 bonds
  1092609 angles
  1534383 dihedrals
  27918 impropers
Finding 1-2 1-3 1-4 neighbors ...
  special bond factors lj:    0        0        0       
  special bond factors coul:  0        0        0       
     4 = max # of 1-2 neighbors
    12 = max # of 1-3 neighbors
    24 = max # of 1-4 neighbors
    26 = max # of special neighbors
  special bonds CPU = 0.033 seconds
  replicate CPU = 0.073 seconds
Finding SHAKE clusters ...
   43659 = # of size 2 clusters
   98091 = # of size 3 clusters
   20169 = # of size 4 clusters
  114291 = # of frozen angles
  find clusters CPU = 0.016 seconds
PPPM initialization ...
  using 12-bit tables for long-range coulomb (../kspace.cpp:340)
  G vector (1/distance) = 0.25235202
  grid = 72 90 90
  stencil order = 7
  estimated absolute RMS force accuracy = 0.029803316
  estimated relative force accuracy = 8.9751802e-05
  using single precision MKL FFT
  3d grid and FFT values/proc = 38700 19440
----------------------------------------------------------
Using INTEL Package without Coprocessor.
Compiler: Intel Classic C++ 20.21.5 / Intel(R) C++ g++ 9.3 mode
SIMD compiler directives: Enabled
Precision: mixed
----------------------------------------------------------
  generated 2278 of 2278 mixed pair_coeff terms from arithmetic mixing rule
Neighbor list info ...
  update every 1 steps, delay 5 steps, check yes
  max neighbors/atom: 2000, page size: 100000
  master list distance cutoff = 12
  ghost atom cutoff = 12
  binsize = 6, bins = 28 39 37
  1 neighbor lists, perpetual/occasional/extra = 1 0 0
  (1) pair lj/charmm/coul/long/intel, perpetual
      attributes: half, newton on, intel
      pair build: half/bin/newton/intel
      stencil: half/bin/3d
      bin: intel
Setting up Verlet run ...
  Unit style    : real
  Current step  : 0
  Time step     : 2
Per MPI rank memory allocation (min/avg/max) = 324.2 | 326.9 | 329.8 Mbytes
---------------- Step        0 ----- CPU =      0.0000 (sec) ----------------
TotEng   =   -684670.9761 KinEng   =    579010.4447 Temp     =       299.0277 
PotEng   =  -1263681.4207 E_bond   =     68525.6859 E_angle  =    294877.1223 
E_dihed  =    140718.2350 E_impro  =      5764.8965 E_vdwl   =    -62312.3838 
E_coul   =   5692538.4978 E_long   =  -7403793.4744 Press    =      -148.6879 
Volume   =   8315865.9045 
---------------- Step       50 ----- CPU =      3.6184 (sec) ----------------
TotEng   =   -683945.7313 KinEng   =    580526.0681 Temp     =       299.8104 
PotEng   =  -1264471.7994 E_bond   =     66737.4420 E_angle  =    292591.3758 
E_dihed  =    141470.6513 E_impro  =      6132.4271 E_vdwl   =    -53811.2235 
E_coul   =   5686392.7410 E_long   =  -7403985.2130 Press    =       238.9123 
Volume   =   8316862.5505 
---------------- Step      100 ----- CPU =      6.7579 (sec) ----------------
TotEng   =   -682827.7630 KinEng   =    582915.3069 Temp     =       301.0444 
PotEng   =  -1265743.0699 E_bond   =     69335.4201 E_angle  =    291121.3611 
E_dihed  =    140366.2515 E_impro  =      5852.7523 E_vdwl   =    -51271.2327 
E_coul   =   5682697.1730 E_long   =  -7403844.7951 Press    =        14.5925 
Volume   =   8319656.0498 
---------------- Step      150 ----- CPU =      9.8864 (sec) ----------------
TotEng   =   -681933.9875 KinEng   =    581471.1330 Temp     =       300.2985 
PotEng   =  -1263405.1205 E_bond   =     69034.6918 E_angle  =    293077.3023 
E_dihed  =    142143.1282 E_impro  =      5481.5186 E_vdwl   =    -56003.7528 
E_coul   =   5686434.8966 E_long   =  -7403572.9052 Press    =       244.1771 
Volume   =   8330011.8063 
---------------- Step      200 ----- CPU =     13.0183 (sec) ----------------
TotEng   =   -677045.1040 KinEng   =    581665.0006 Temp     =       300.3986 
PotEng   =  -1258710.1045 E_bond   =     67217.2071 E_angle  =    299059.3302 
E_dihed  =    140985.4794 E_impro  =      6276.4136 E_vdwl   =    -58007.1072 
E_coul   =   5689302.9329 E_long   =  -7403544.3605 Press    =        40.8124 
Volume   =   8342999.9631 
---------------- Step      250 ----- CPU =     16.0886 (sec) ----------------
TotEng   =   -673906.0320 KinEng   =    581418.2388 Temp     =       300.2712 
PotEng   =  -1255324.2708 E_bond   =     68622.5497 E_angle  =    299579.4858 
E_dihed  =    141627.7142 E_impro  =      5762.4903 E_vdwl   =    -58458.6625 
E_coul   =   5691556.0142 E_long   =  -7404013.8625 Press    =      -156.3691 
Volume   =   8353619.7916 
---------------- Step      300 ----- CPU =     19.2144 (sec) ----------------
TotEng   =   -675757.7644 KinEng   =    581039.1862 Temp     =       300.0754 
PotEng   =  -1256796.9506 E_bond   =     69142.5377 E_angle  =    294996.1415 
E_dihed  =    140989.2771 E_impro  =      6060.9776 E_vdwl   =    -58719.8138 
E_coul   =   5694361.5732 E_long   =  -7403627.6439 Press    =      -387.0409 
Volume   =   8362034.1659 
---------------- Step      350 ----- CPU =     22.2690 (sec) ----------------
TotEng   =   -678673.4758 KinEng   =    582966.6870 Temp     =       301.0709 
PotEng   =  -1261640.1627 E_bond   =     69681.3148 E_angle  =    295880.9346 
E_dihed  =    141867.6937 E_impro  =      5643.4556 E_vdwl   =    -55483.0082 
E_coul   =   5684758.0477 E_long   =  -7403988.6011 Press    =      -329.5017 
Volume   =   8365838.9276 
---------------- Step      400 ----- CPU =     25.4492 (sec) ----------------
TotEng   =   -682510.6457 KinEng   =    578754.3073 Temp     =       298.8954 
PotEng   =  -1261264.9530 E_bond   =     68685.7325 E_angle  =    295000.2961 
E_dihed  =    140848.8304 E_impro  =      5797.7292 E_vdwl   =    -53631.2846 
E_coul   =   5685746.8881 E_long   =  -7403713.1447 Press    =       267.5445 
Volume   =   8366846.3056 
---------------- Step      450 ----- CPU =     28.5652 (sec) ----------------
TotEng   =   -684410.0502 KinEng   =    579106.0903 Temp     =       299.0771 
PotEng   =  -1263516.1405 E_bond   =     67198.1667 E_angle  =    294439.7089 
E_dihed  =    142306.8780 E_impro  =      6057.5450 E_vdwl   =    -60410.3842 
E_coul   =   5690663.7834 E_long   =  -7403771.8382 Press    =       143.5176 
Volume   =   8368627.8689 
---------------- Step      500 ----- CPU =     31.7456 (sec) ----------------
TotEng   =   -678905.8442 KinEng   =    580735.7495 Temp     =       299.9187 
PotEng   =  -1259641.5937 E_bond   =     69861.5144 E_angle  =    294677.2913 
E_dihed  =    141451.9908 E_impro  =      5862.3808 E_vdwl   =    -58457.1667 
E_coul   =   5690409.1147 E_long   =  -7403446.7190 Press    =      -204.4224 
Volume   =   8369117.1080 
---------------- Step      550 ----- CPU =     34.8681 (sec) ----------------
TotEng   =   -672495.2342 KinEng   =    583435.9300 Temp     =       301.3132 
PotEng   =  -1255931.1642 E_bond   =     68891.7601 E_angle  =    296625.6077 
E_dihed  =    140445.1910 E_impro  =      6460.0917 E_vdwl   =    -57235.1912 
E_coul   =   5692580.4722 E_long   =  -7403699.0957 Press    =       353.5501 
Volume   =   8368686.1996 
---------------- Step      600 ----- CPU =     38.0502 (sec) ----------------
TotEng   =   -670547.0419 KinEng   =    585277.2483 Temp     =       302.2642 
PotEng   =  -1255824.2902 E_bond   =     68016.7756 E_angle  =    297919.4740 
E_dihed  =    142091.1410 E_impro  =      6094.3207 E_vdwl   =    -59531.3658 
E_coul   =   5693320.2011 E_long   =  -7403734.8367 Press    =        82.0849 
Volume   =   8370833.5880 
---------------- Step      650 ----- CPU =     41.1717 (sec) ----------------
TotEng   =   -674882.4523 KinEng   =    582792.4833 Temp     =       300.9809 
PotEng   =  -1257674.9356 E_bond   =     68283.3237 E_angle  =    293737.2552 
E_dihed  =    141625.1308 E_impro  =      5700.8769 E_vdwl   =    -57421.2644 
E_coul   =   5694053.9808 E_long   =  -7403654.2385 Press    =      -168.2868 
Volume   =   8372997.0683 
---------------- Step      700 ----- CPU =     44.2998 (sec) ----------------
TotEng   =   -679160.1810 KinEng   =    580768.5608 Temp     =       299.9357 
PotEng   =  -1259928.7418 E_bond   =     66960.6814 E_angle  =    296267.0175 
E_dihed  =    141418.4929 E_impro  =      5681.1726 E_vdwl   =    -59706.5392 
E_coul   =   5693151.4047 E_long   =  -7403700.9717 Press    =       167.8927 
Volume   =   8373866.6836 
---------------- Step      750 ----- CPU =     47.4864 (sec) ----------------
TotEng   =   -679752.0368 KinEng   =    577837.5798 Temp     =       298.4220 
PotEng   =  -1257589.6166 E_bond   =     69012.1630 E_angle  =    296918.3442 
E_dihed  =    141993.2379 E_impro  =      5773.5717 E_vdwl   =    -57795.7309 
E_coul   =   5690379.7719 E_long   =  -7403870.9743 Press    =       -28.0135 
Volume   =   8372238.2915 
---------------- Step      800 ----- CPU =     50.6081 (sec) ----------------
TotEng   =   -677184.4580 KinEng   =    579372.4350 Temp     =       299.2147 
PotEng   =  -1256556.8930 E_bond   =     67819.9661 E_angle  =    298703.6812 
E_dihed  =    142411.7845 E_impro  =      6103.0816 E_vdwl   =    -57612.7903 
E_coul   =   5689655.1008 E_long   =  -7403637.7170 Press    =       -62.8510 
Volume   =   8370567.4309 
---------------- Step      850 ----- CPU =     53.7969 (sec) ----------------
TotEng   =   -673286.9249 KinEng   =    582337.9005 Temp     =       300.7462 
PotEng   =  -1255624.8254 E_bond   =     68583.8409 E_angle  =    297113.7437 
E_dihed  =    142043.2031 E_impro  =      5904.7736 E_vdwl   =    -55908.6479 
E_coul   =   5690305.0358 E_long   =  -7403666.7747 Press    =       351.4231 
Volume   =   8365279.7117 
---------------- Step      900 ----- CPU =     56.9234 (sec) ----------------
TotEng   =   -671941.7489 KinEng   =    582529.4933 Temp     =       300.8451 
PotEng   =  -1254471.2422 E_bond   =     68199.3562 E_angle  =    296995.4048 
E_dihed  =    142315.1348 E_impro  =      6175.9080 E_vdwl   =    -54988.0471 
E_coul   =   5690426.0985 E_long   =  -7403595.0973 Press    =       285.4494 
Volume   =   8362044.4836 
---------------- Step      950 ----- CPU =     60.1198 (sec) ----------------
TotEng   =   -673919.1596 KinEng   =    580431.0747 Temp     =       299.7614 
PotEng   =  -1254350.2343 E_bond   =     69104.7057 E_angle  =    298050.8725 
E_dihed  =    143226.6650 E_impro  =      6434.3285 E_vdwl   =    -57745.7417 
E_coul   =   5690127.2955 E_long   =  -7403548.3598 Press    =      -160.3686 
Volume   =   8362060.3679 
---------------- Step     1000 ----- CPU =     63.2499 (sec) ----------------
TotEng   =   -677507.4076 KinEng   =    579300.2554 Temp     =       299.1774 
PotEng   =  -1256807.6630 E_bond   =     69798.4261 E_angle  =    297147.0945 
E_dihed  =    142002.4770 E_impro  =      5920.5008 E_vdwl   =    -57280.6608 
E_coul   =   5689334.9235 E_long   =  -7403730.4243 Press    =      -133.6786 
Volume   =   8361615.6443 
---------------- Step     1050 ----- CPU =     66.4403 (sec) ----------------
TotEng   =   -678924.1389 KinEng   =    579514.1328 Temp     =       299.2878 
PotEng   =  -1258438.2717 E_bond   =     68921.3449 E_angle  =    297368.5851 
E_dihed  =    141681.7397 E_impro  =      6000.2317 E_vdwl   =    -57509.0842 
E_coul   =   5688775.5236 E_long   =  -7403676.6125 Press    =       -36.5820 
Volume   =   8361399.2918 
---------------- Step     1100 ----- CPU =     69.5744 (sec) ----------------
TotEng   =   -677923.7771 KinEng   =    580924.0805 Temp     =       300.0160 
PotEng   =  -1258847.8576 E_bond   =     69607.6823 E_angle  =    296304.5828 
E_dihed  =    141974.7147 E_impro  =      6190.9271 E_vdwl   =    -59348.1699 
E_coul   =   5690271.8664 E_long   =  -7403849.4610 Press    =      -140.9326 
Volume   =   8360796.5039 
---------------- Step     1150 ----- CPU =     72.7698 (sec) ----------------
TotEng   =   -676232.2235 KinEng   =    581933.9418 Temp     =       300.5375 
PotEng   =  -1258166.1653 E_bond   =     68792.9290 E_angle  =    296454.4230 
E_dihed  =    142530.5358 E_impro  =      5937.7468 E_vdwl   =    -56865.6010 
E_coul   =   5688728.1526 E_long   =  -7403744.3516 Press    =       126.1357 
Volume   =   8356956.6632 
---------------- Step     1200 ----- CPU =     75.9032 (sec) ----------------
TotEng   =   -675326.4400 KinEng   =    581974.4407 Temp     =       300.5584 
PotEng   =  -1257300.8807 E_bond   =     69904.5041 E_angle  =    295804.6201 
E_dihed  =    142299.2548 E_impro  =      5971.9306 E_vdwl   =    -56786.2476 
E_coul   =   5689297.9505 E_long   =  -7403792.8932 Press    =        32.0368 
Volume   =   8352393.6714 
---------------- Step     1250 ----- CPU =     79.0967 (sec) ----------------
TotEng   =   -676207.0506 KinEng   =    581020.3378 Temp     =       300.0657 
PotEng   =  -1257227.3884 E_bond   =     68948.6611 E_angle  =    296523.6664 
E_dihed  =    142133.6855 E_impro  =      6072.1178 E_vdwl   =    -56346.4443 
E_coul   =   5689280.1713 E_long   =  -7403839.2461 Press    =       166.3578 
Volume   =   8350528.3315 
---------------- Step     1300 ----- CPU =     82.2303 (sec) ----------------
TotEng   =   -677598.7802 KinEng   =    580594.1481 Temp     =       299.8456 
PotEng   =  -1258192.9283 E_bond   =     70038.1812 E_angle  =    296378.8978 
E_dihed  =    142427.1029 E_impro  =      6135.7890 E_vdwl   =    -58235.9601 
E_coul   =   5688744.7635 E_long   =  -7403681.7026 Press    =      -255.2555 
Volume   =   8350690.1237 
---------------- Step     1350 ----- CPU =     85.4260 (sec) ----------------
TotEng   =   -678121.0672 KinEng   =    579402.4353 Temp     =       299.2301 
PotEng   =  -1257523.5025 E_bond   =     69367.9539 E_angle  =    296791.9241 
E_dihed  =    142415.5483 E_impro  =      6054.3140 E_vdwl   =    -56570.9978 
E_coul   =   5688133.0659 E_long   =  -7403715.3110 Press    =       -75.6663 
Volume   =   8350929.3295 
---------------- Step     1400 ----- CPU =     88.5578 (sec) ----------------
TotEng   =   -677652.7373 KinEng   =    580156.9546 Temp     =       299.6198 
PotEng   =  -1257809.6919 E_bond   =     69590.1321 E_angle  =    296987.1148 
E_dihed  =    142313.7719 E_impro  =      6020.8234 E_vdwl   =    -56482.0708 
E_coul   =   5687480.0788 E_long   =  -7403719.5421 Press    =       -64.0392 
Volume   =   8351607.0326 
---------------- Step     1450 ----- CPU =     91.7524 (sec) ----------------
TotEng   =   -676825.4788 KinEng   =    581034.9035 Temp     =       300.0732 
PotEng   =  -1257860.3823 E_bond   =     69222.4399 E_angle  =    297107.2360 
E_dihed  =    142297.2628 E_impro  =      6038.7693 E_vdwl   =    -56528.9442 
E_coul   =   5687698.1373 E_long   =  -7403695.2835 Press    =        89.7763 
Volume   =   8351831.3554 
---------------- Step     1500 ----- CPU =     94.8864 (sec) ----------------
TotEng   =   -676558.2986 KinEng   =    581663.0137 Temp     =       300.3976 
PotEng   =  -1258221.3123 E_bond   =     69354.6143 E_angle  =    297152.1890 
E_dihed  =    142446.7388 E_impro  =      6098.4418 E_vdwl   =    -56685.3968 
E_coul   =   5687125.2722 E_long   =  -7403713.1716 Press    =        19.1124 
Volume   =   8352117.9476 
---------------- Step     1550 ----- CPU =     98.0803 (sec) ----------------
TotEng   =   -677283.3083 KinEng   =    581425.6899 Temp     =       300.2750 
PotEng   =  -1258708.9982 E_bond   =     68894.7218 E_angle  =    297846.7246 
E_dihed  =    141863.0272 E_impro  =      6046.5061 E_vdwl   =    -56694.6402 
E_coul   =   5687063.1255 E_long   =  -7403728.4632 Press    =        55.9700 
Volume   =   8352925.3253 
---------------- Step     1600 ----- CPU =    101.2177 (sec) ----------------
TotEng   =   -678705.8206 KinEng   =    580512.0750 Temp     =       299.8032 
PotEng   =  -1259217.8956 E_bond   =     69012.2279 E_angle  =    296390.0428 
E_dihed  =    141441.6613 E_impro  =      5822.8668 E_vdwl   =    -55722.1904 
E_coul   =   5687548.8611 E_long   =  -7403711.3651 Press    =       134.1288 
Volume   =   8354026.5117 
---------------- Step     1650 ----- CPU =    104.4087 (sec) ----------------
TotEng   =   -679595.0249 KinEng   =    578903.1344 Temp     =       298.9723 
PotEng   =  -1258498.1593 E_bond   =     69521.8832 E_angle  =    296911.6716 
E_dihed  =    141955.6917 E_impro  =      6015.2645 E_vdwl   =    -56930.3103 
E_coul   =   5687768.2405 E_long   =  -7403740.6005 Press    =       -52.2718 
Volume   =   8355784.9315 
---------------- Step     1700 ----- CPU =    107.5377 (sec) ----------------
TotEng   =   -678467.3275 KinEng   =    580224.0019 Temp     =       299.6544 
PotEng   =  -1258691.3294 E_bond   =     69423.8514 E_angle  =    297407.0414 
E_dihed  =    142037.4369 E_impro  =      6061.1923 E_vdwl   =    -57514.8212 
E_coul   =   5687572.8740 E_long   =  -7403678.9042 Press    =       -24.4506 
Volume   =   8357235.2110 
---------------- Step     1750 ----- CPU =    110.7313 (sec) ----------------
TotEng   =   -676328.0960 KinEng   =    581816.1355 Temp     =       300.4767 
PotEng   =  -1258144.2315 E_bond   =     69116.0957 E_angle  =    297663.4582 
E_dihed  =    142140.8310 E_impro  =      6038.5616 E_vdwl   =    -57239.2234 
E_coul   =   5687875.7122 E_long   =  -7403739.6669 Press    =       -10.6274 
Volume   =   8357291.7604 
---------------- Step     1800 ----- CPU =    113.8620 (sec) ----------------
TotEng   =   -675474.0003 KinEng   =    581466.1643 Temp     =       300.2960 
PotEng   =  -1256940.1646 E_bond   =     69349.5664 E_angle  =    297584.4725 
E_dihed  =    142501.2127 E_impro  =      6128.7693 E_vdwl   =    -55955.6581 
E_coul   =   5687126.3610 E_long   =  -7403674.8884 Press    =       -29.7721 
Volume   =   8356643.5445 
---------------- Step     1850 ----- CPU =    116.9897 (sec) ----------------
TotEng   =   -676423.7656 KinEng   =    581333.0722 Temp     =       300.2272 
PotEng   =  -1257756.8378 E_bond   =     69383.5544 E_angle  =    297503.5511 
E_dihed  =    141979.2074 E_impro  =      6002.9650 E_vdwl   =    -57428.5715 
E_coul   =   5688581.5085 E_long   =  -7403779.0526 Press    =        58.4823 
Volume   =   8356897.9938 
---------------- Step     1900 ----- CPU =    120.1790 (sec) ----------------
TotEng   =   -678457.0589 KinEng   =    579289.0423 Temp     =       299.1716 
PotEng   =  -1257746.1012 E_bond   =     69182.0660 E_angle  =    297383.5530 
E_dihed  =    142035.3095 E_impro  =      6083.7286 E_vdwl   =    -57493.1257 
E_coul   =   5688699.3096 E_long   =  -7403636.9422 Press    =        -1.2963 
Volume   =   8357271.3710 
---------------- Step     1950 ----- CPU =    123.3097 (sec) ----------------
TotEng   =   -679395.4741 KinEng   =    580306.2304 Temp     =       299.6969 
PotEng   =  -1259701.7045 E_bond   =     69389.1371 E_angle  =    297487.8114 
E_dihed  =    141666.0236 E_impro  =      5989.3917 E_vdwl   =    -56044.9436 
E_coul   =   5685522.1789 E_long   =  -7403711.3036 Press    =       -50.3936 
Volume   =   8357619.8542 
---------------- Step     2000 ----- CPU =    126.4378 (sec) ----------------
TotEng   =   -679036.1815 KinEng   =    581144.2382 Temp     =       300.1297 
PotEng   =  -1260180.4197 E_bond   =     69018.1140 E_angle  =    296817.6289 
E_dihed  =    142010.3525 E_impro  =      5970.1297 E_vdwl   =    -56281.2185 
E_coul   =   5686002.4241 E_long   =  -7403717.8505 Press    =       -81.7210 
Volume   =   8358412.1642 
---------------- Step     2050 ----- CPU =    129.6381 (sec) ----------------
TotEng   =   -678263.9872 KinEng   =    580728.8958 Temp     =       299.9152 
PotEng   =  -1258992.8830 E_bond   =     69133.0886 E_angle  =    297080.8851 
E_dihed  =    142177.4926 E_impro  =      6080.2209 E_vdwl   =    -55968.5178 
E_coul   =   5686214.6630 E_long   =  -7403710.7154 Press    =       -66.3872 
Volume   =   8357675.5492 
---------------- Step     2100 ----- CPU =    132.7777 (sec) ----------------
TotEng   =   -677638.7893 KinEng   =    580497.2835 Temp     =       299.7956 
PotEng   =  -1258136.0728 E_bond   =     69352.2220 E_angle  =    297560.4307 
E_dihed  =    142560.7088 E_impro  =      6075.1526 E_vdwl   =    -55421.9077 
E_coul   =   5685531.0161 E_long   =  -7403793.6953 Press    =       116.8836 
Volume   =   8356489.6999 
---------------- Step     2150 ----- CPU =    135.9781 (sec) ----------------
TotEng   =   -677537.0363 KinEng   =    581328.3002 Temp     =       300.2248 
PotEng   =  -1258865.3365 E_bond   =     69519.7792 E_angle  =    297555.3846 
E_dihed  =    141907.1205 E_impro  =      6093.7859 E_vdwl   =    -56743.6944 
E_coul   =   5686540.3737 E_long   =  -7403738.0860 Press    =       -50.9791 
Volume   =   8356045.0597 
---------------- Step     2200 ----- CPU =    139.1191 (sec) ----------------
TotEng   =   -677993.8082 KinEng   =    581494.0081 Temp     =       300.3103 
PotEng   =  -1259487.8164 E_bond   =     69397.2298 E_angle  =    297173.7640 
E_dihed  =    142215.3318 E_impro  =      6100.0138 E_vdwl   =    -56799.2064 
E_coul   =   5686122.1859 E_long   =  -7403697.1354 Press    =      -102.8833 
Volume   =   8354951.5693 
---------------- Step     2250 ----- CPU =    142.3238 (sec) ----------------
TotEng   =   -678718.1661 KinEng   =    579942.1650 Temp     =       299.5089 
PotEng   =  -1258660.3311 E_bond   =     69337.3839 E_angle  =    297264.5754 
E_dihed  =    142125.2814 E_impro  =      6176.5256 E_vdwl   =    -56090.4670 
E_coul   =   5686229.8554 E_long   =  -7403703.4858 Press    =       -23.6462 
Volume   =   8353612.9594 
---------------- Step     2300 ----- CPU =    145.4646 (sec) ----------------
TotEng   =   -678521.1603 KinEng   =    580306.2178 Temp     =       299.6969 
PotEng   =  -1258827.3782 E_bond   =     69465.6964 E_angle  =    297933.0130 
E_dihed  =    142166.7018 E_impro  =      6008.0450 E_vdwl   =    -55581.2600 
E_coul   =   5684954.2435 E_long   =  -7403773.8179 Press    =       -61.4148 
Volume   =   8352470.3750 
---------------- Step     2350 ----- CPU =    148.6132 (sec) ----------------
TotEng   =   -677969.1961 KinEng   =    581690.4836 Temp     =       300.4118 
PotEng   =  -1259659.6797 E_bond   =     69251.1569 E_angle  =    297772.3307 
E_dihed  =    141952.7316 E_impro  =      6090.2080 E_vdwl   =    -56032.3325 
E_coul   =   5685046.5938 E_long   =  -7403740.3684 Press    =       -35.1819 
Volume   =   8351500.4893 
---------------- Step     2400 ----- CPU =    151.8272 (sec) ----------------
TotEng   =   -678107.1498 KinEng   =    581267.0038 Temp     =       300.1931 
PotEng   =  -1259374.1536 E_bond   =     69111.9323 E_angle  =    297245.1742 
E_dihed  =    142210.5094 E_impro  =      5947.1659 E_vdwl   =    -57305.1623 
E_coul   =   5687168.6674 E_long   =  -7403752.4404 Press    =        -7.4924 
Volume   =   8350811.6614 
---------------- Step     2450 ----- CPU =    154.9801 (sec) ----------------
TotEng   =   -678858.0907 KinEng   =    580955.0042 Temp     =       300.0320 
PotEng   =  -1259813.0950 E_bond   =     69344.4532 E_angle  =    297608.7553 
E_dihed  =    142340.1757 E_impro  =      5959.8836 E_vdwl   =    -57073.8361 
E_coul   =   5685788.6013 E_long   =  -7403781.1279 Press    =       -95.6102 
Volume   =   8350281.3984 
---------------- Step     2500 ----- CPU =    158.1993 (sec) ----------------
TotEng   =   -679668.0335 KinEng   =    580155.3351 Temp     =       299.6190 
PotEng   =  -1259823.3686 E_bond   =     69207.7217 E_angle  =    297667.6368 
E_dihed  =    142172.4792 E_impro  =      5983.5252 E_vdwl   =    -57393.8884 
E_coul   =   5686299.4608 E_long   =  -7403760.3039 Press    =        14.0150 
Volume   =   8348102.1489 
---------------- Step     2550 ----- CPU =    161.3498 (sec) ----------------
TotEng   =   -679907.9049 KinEng   =    580460.2700 Temp     =       299.7765 
PotEng   =  -1260368.1749 E_bond   =     69775.5454 E_angle  =    297354.8797 
E_dihed  =    142081.6212 E_impro  =      6036.5070 E_vdwl   =    -56495.4388 
E_coul   =   5684660.4249 E_long   =  -7403781.7143 Press    =       -53.5919 
Volume   =   8346347.8385 
---------------- Step     2600 ----- CPU =    164.4939 (sec) ----------------
TotEng   =   -679273.7971 KinEng   =    580798.1373 Temp     =       299.9510 
PotEng   =  -1260071.9344 E_bond   =     69101.1085 E_angle  =    297527.9968 
E_dihed  =    142149.1351 E_impro  =      6053.7645 E_vdwl   =    -55886.3992 
E_coul   =   5684830.0627 E_long   =  -7403847.6027 Press    =        10.3743 
Volume   =   8344507.0794 
---------------- Step     2650 ----- CPU =    167.6321 (sec) ----------------
TotEng   =   -678306.4315 KinEng   =    581901.2159 Temp     =       300.5206 
PotEng   =  -1260207.6474 E_bond   =     69416.6445 E_angle  =    297090.2716 
E_dihed  =    142471.2352 E_impro  =      5997.7096 E_vdwl   =    -56118.1751 
E_coul   =   5684737.3624 E_long   =  -7403802.6956 Press    =       -45.7319 
Volume   =   8343386.9576 
---------------- Step     2700 ----- CPU =    170.8223 (sec) ----------------
TotEng   =   -678414.4986 KinEng   =    580223.1922 Temp     =       299.6540 
PotEng   =  -1258637.6908 E_bond   =     69393.2818 E_angle  =    298280.7412 
E_dihed  =    142034.1293 E_impro  =      6006.5106 E_vdwl   =    -55889.6875 
E_coul   =   5685292.8287 E_long   =  -7403755.4949 Press    =        49.2239 
Volume   =   8342643.1622 
---------------- Step     2750 ----- CPU =    174.0164 (sec) ----------------
TotEng   =   -679124.8879 KinEng   =    580809.4730 Temp     =       299.9568 
PotEng   =  -1259934.3609 E_bond   =     69454.7993 E_angle  =    297489.3702 
E_dihed  =    142271.4008 E_impro  =      5998.4519 E_vdwl   =    -55987.8378 
E_coul   =   5684574.5401 E_long   =  -7403735.0853 Press    =        73.6755 
Volume   =   8342798.3409 
---------------- Step     2800 ----- CPU =    177.1477 (sec) ----------------
TotEng   =   -679969.9019 KinEng   =    580136.4967 Temp     =       299.6093 
PotEng   =  -1260106.3986 E_bond   =     69409.6126 E_angle  =    298109.0293 
E_dihed  =    142184.6184 E_impro  =      6059.3338 E_vdwl   =    -55692.6692 
E_coul   =   5683559.0801 E_long   =  -7403735.4035 Press    =        56.0671 
Volume   =   8344644.4262 
---------------- Step     2850 ----- CPU =    180.2790 (sec) ----------------
TotEng   =   -680599.8686 KinEng   =    579913.3863 Temp     =       299.4940 
PotEng   =  -1260513.2549 E_bond   =     69721.7710 E_angle  =    297466.1772 
E_dihed  =    142128.4714 E_impro  =      6046.0183 E_vdwl   =    -56262.2958 
E_coul   =   5684139.7776 E_long   =  -7403753.1746 Press    =        32.5505 
Volume   =   8347166.1412 
---------------- Step     2900 ----- CPU =    183.4739 (sec) ----------------
TotEng   =   -679798.6405 KinEng   =    580342.9034 Temp     =       299.7158 
PotEng   =  -1260141.5439 E_bond   =     69482.0194 E_angle  =    297994.6533 
E_dihed  =    141828.6315 E_impro  =      6095.1154 E_vdwl   =    -57048.5005 
E_coul   =   5685224.2647 E_long   =  -7403717.7275 Press    =       -65.9368 
Volume   =   8349500.1320 
---------------- Step     2950 ----- CPU =    186.6042 (sec) ----------------
TotEng   =   -678522.9225 KinEng   =    580376.2532 Temp     =       299.7331 
PotEng   =  -1258899.1757 E_bond   =     69687.9793 E_angle  =    297639.1566 
E_dihed  =    142093.7969 E_impro  =      6133.0355 E_vdwl   =    -56896.5827 
E_coul   =   5686182.6049 E_long   =  -7403739.1662 Press    =       -96.8640 
Volume   =   8351173.5959 
---------------- Step     3000 ----- CPU =    189.8007 (sec) ----------------
TotEng   =   -677575.5419 KinEng   =    581704.3359 Temp     =       300.4190 
PotEng   =  -1259279.8778 E_bond   =     69808.8374 E_angle  =    297789.1532 
E_dihed  =    142309.4364 E_impro  =      6055.5444 E_vdwl   =    -55715.4520 
E_coul   =   5684285.3876 E_long   =  -7403812.7848 Press    =       -82.8625 
Volume   =   8352169.3058 
---------------- Step     3050 ----- CPU =    192.9294 (sec) ----------------
TotEng   =   -678115.4223 KinEng   =    581900.9631 Temp     =       300.5205 
PotEng   =  -1260016.3854 E_bond   =     69266.4984 E_angle  =    298230.1757 
E_dihed  =    142238.8716 E_impro  =      5982.3496 E_vdwl   =    -55719.9912 
E_coul   =   5683752.9566 E_long   =  -7403767.2462 Press    =       -15.9544 
Volume   =   8353013.9181 
---------------- Step     3100 ----- CPU =    196.1233 (sec) ----------------
TotEng   =   -679547.7065 KinEng   =    580226.5316 Temp     =       299.6557 
PotEng   =  -1259774.2381 E_bond   =     69772.5998 E_angle  =    297994.7063 
E_dihed  =    142353.5849 E_impro  =      5974.1694 E_vdwl   =    -55827.2799 
E_coul   =   5683706.5222 E_long   =  -7403748.5407 Press    =       -23.6660 
Volume   =   8353761.5728 
---------------- Step     3150 ----- CPU =    199.2470 (sec) ----------------
TotEng   =   -680848.4702 KinEng   =    580873.6904 Temp     =       299.9900 
PotEng   =  -1261722.1606 E_bond   =     69351.7537 E_angle  =    296848.0481 
E_dihed  =    142125.2540 E_impro  =      6061.0881 E_vdwl   =    -56014.0602 
E_coul   =   5683681.3398 E_long   =  -7403775.5842 Press    =       -24.9463 
Volume   =   8353972.4446 
---------------- Step     3200 ----- CPU =    202.4316 (sec) ----------------
TotEng   =   -680986.0490 KinEng   =    579791.5766 Temp     =       299.4311 
PotEng   =  -1260777.6256 E_bond   =     69220.5775 E_angle  =    297491.2734 
E_dihed  =    142214.2089 E_impro  =      5945.0691 E_vdwl   =    -56693.3465 
E_coul   =   5684710.8837 E_long   =  -7403666.2917 Press    =       -26.8425 
Volume   =   8353589.4346 
---------------- Step     3250 ----- CPU =    205.5588 (sec) ----------------
TotEng   =   -679354.4842 KinEng   =    580405.5278 Temp     =       299.7482 
PotEng   =  -1259760.0120 E_bond   =     69650.7138 E_angle  =    297973.6671 
E_dihed  =    142382.5449 E_impro  =      5991.8528 E_vdwl   =    -56796.2263 
E_coul   =   5684781.2766 E_long   =  -7403743.8409 Press    =       -27.6497 
Volume   =   8352699.7012 
---------------- Step     3300 ----- CPU =    208.7459 (sec) ----------------
TotEng   =   -677505.6441 KinEng   =    581750.0921 Temp     =       300.4426 
PotEng   =  -1259255.7362 E_bond   =     69767.2762 E_angle  =    298018.1904 
E_dihed  =    142146.2112 E_impro  =      6047.1996 E_vdwl   =    -55261.5274 
E_coul   =   5683759.4337 E_long   =  -7403732.5199 Press    =       -11.8167 
Volume   =   8351253.1077 
---------------- Step     3350 ----- CPU =    211.9286 (sec) ----------------
TotEng   =   -677532.8382 KinEng   =    581412.4147 Temp     =       300.2682 
PotEng   =  -1258945.2529 E_bond   =     70009.2613 E_angle  =    298330.9738 
E_dihed  =    142338.0785 E_impro  =      6024.0066 E_vdwl   =    -55372.4363 
E_coul   =   5683499.6339 E_long   =  -7403774.7707 Press    =       -30.9906 
Volume   =   8350870.2126 
---------------- Step     3400 ----- CPU =    215.0512 (sec) ----------------
TotEng   =   -679041.6976 KinEng   =    581341.0787 Temp     =       300.2314 
PotEng   =  -1260382.7764 E_bond   =     69537.5310 E_angle  =    298828.7313 
E_dihed  =    142095.4577 E_impro  =      6040.4528 E_vdwl   =    -57337.2668 
E_coul   =   5684206.2070 E_long   =  -7403753.8894 Press    =       -26.3593 
Volume   =   8350283.7557 
---------------- Step     3450 ----- CPU =    218.1756 (sec) ----------------
TotEng   =   -681031.7760 KinEng   =    579838.2236 Temp     =       299.4552 
PotEng   =  -1260869.9996 E_bond   =     69138.1923 E_angle  =    298083.8411 
E_dihed  =    142259.1210 E_impro  =      6062.3286 E_vdwl   =    -55665.7409 
E_coul   =   5683002.3268 E_long   =  -7403750.0685 Press    =       -30.3771 
Volume   =   8348892.4346 
---------------- Step     3500 ----- CPU =    221.3730 (sec) ----------------
TotEng   =   -681337.2536 KinEng   =    580377.1925 Temp     =       299.7336 
PotEng   =  -1261714.4462 E_bond   =     69779.8857 E_angle  =    297956.3090 
E_dihed  =    142132.8211 E_impro  =      6131.5095 E_vdwl   =    -55788.8342 
E_coul   =   5681871.1673 E_long   =  -7403797.3045 Press    =        29.6763 
Volume   =   8347149.4587 
---------------- Step     3550 ----- CPU =    224.5033 (sec) ----------------
TotEng   =   -680841.1292 KinEng   =    581072.5331 Temp     =       300.0927 
PotEng   =  -1261913.6622 E_bond   =     69452.7502 E_angle  =    298142.8373 
E_dihed  =    142090.9710 E_impro  =      6067.7600 E_vdwl   =    -56267.2753 
E_coul   =   5682374.2320 E_long   =  -7403774.9374 Press    =        26.8055 
Volume   =   8346595.2890 
---------------- Step     3600 ----- CPU =    227.6970 (sec) ----------------
TotEng   =   -680170.0246 KinEng   =    581097.7784 Temp     =       300.1057 
PotEng   =  -1261267.8031 E_bond   =     69707.8709 E_angle  =    298054.7123 
E_dihed  =    142192.4672 E_impro  =      5978.5721 E_vdwl   =    -56306.6570 
E_coul   =   5682809.3180 E_long   =  -7403704.0867 Press    =       -87.2307 
Volume   =   8346863.3922 
---------------- Step     3650 ----- CPU =    230.8291 (sec) ----------------
TotEng   =   -679753.2729 KinEng   =    581480.4935 Temp     =       300.3034 
PotEng   =  -1261233.7664 E_bond   =     69425.0603 E_angle  =    298351.3231 
E_dihed  =    142187.9659 E_impro  =      6057.1767 E_vdwl   =    -56948.7178 
E_coul   =   5683441.2603 E_long   =  -7403747.8349 Press    =       -27.6473 
Volume   =   8346398.7370 
---------------- Step     3700 ----- CPU =    233.9581 (sec) ----------------
TotEng   =   -679798.7192 KinEng   =    581100.5224 Temp     =       300.1071 
PotEng   =  -1260899.2416 E_bond   =     69763.6852 E_angle  =    298407.2059 
E_dihed  =    142315.4057 E_impro  =      6089.6489 E_vdwl   =    -57046.2999 
E_coul   =   5683318.8010 E_long   =  -7403747.6882 Press    =       -10.3965 
Volume   =   8345397.6563 
---------------- Step     3750 ----- CPU =    237.1482 (sec) ----------------
TotEng   =   -680507.1841 KinEng   =    580349.2937 Temp     =       299.7191 
PotEng   =  -1260856.4778 E_bond   =     69487.7624 E_angle  =    298169.4568 
E_dihed  =    142321.2208 E_impro  =      6041.2303 E_vdwl   =    -55173.3785 
E_coul   =   5682007.3065 E_long   =  -7403710.0761 Press    =       -47.6562 
Volume   =   8344417.3227 
---------------- Step     3800 ----- CPU =    240.2689 (sec) ----------------
TotEng   =   -681415.2277 KinEng   =    580853.3016 Temp     =       299.9794 
PotEng   =  -1262268.5293 E_bond   =     69409.3303 E_angle  =    297863.1644 
E_dihed  =    142162.6007 E_impro  =      6051.1272 E_vdwl   =    -56192.0651 
E_coul   =   5682239.0542 E_long   =  -7403801.7410 Press    =       -64.3847 
Volume   =   8344235.1441 
---------------- Step     3850 ----- CPU =    243.3930 (sec) ----------------
TotEng   =   -681772.0079 KinEng   =    579644.0986 Temp     =       299.3550 
PotEng   =  -1261416.1065 E_bond   =     69472.6058 E_angle  =    298410.6548 
E_dihed  =    142600.7305 E_impro  =      6043.1403 E_vdwl   =    -55689.4206 
E_coul   =   5681554.5236 E_long   =  -7403808.3408 Press    =       -35.0169 
Volume   =   8343893.0858 
---------------- Step     3900 ----- CPU =    246.5773 (sec) ----------------
TotEng   =   -680841.8751 KinEng   =    580313.0643 Temp     =       299.7004 
PotEng   =  -1261154.9394 E_bond   =     69632.8611 E_angle  =    298916.9164 
E_dihed  =    141922.6719 E_impro  =      6008.1266 E_vdwl   =    -56063.1630 
E_coul   =   5682287.6521 E_long   =  -7403860.0045 Press    =       -17.2886 
Volume   =   8343376.1472 
---------------- Step     3950 ----- CPU =    249.7008 (sec) ----------------
TotEng   =   -679657.5562 KinEng   =    582038.5998 Temp     =       300.5916 
PotEng   =  -1261696.1560 E_bond   =     69638.8898 E_angle  =    298184.3835 
E_dihed  =    142147.5404 E_impro  =      6071.8036 E_vdwl   =    -55623.7803 
E_coul   =   5681642.5191 E_long   =  -7403757.5121 Press    =       -23.2878 
Volume   =   8342928.7911 
---------------- Step     4000 ----- CPU =    252.8296 (sec) ----------------
TotEng   =   -679607.9451 KinEng   =    581842.1739 Temp     =       300.4901 
PotEng   =  -1261450.1191 E_bond   =     69268.3318 E_angle  =    298582.2480 
E_dihed  =    142217.1951 E_impro  =      6012.9296 E_vdwl   =    -55584.9555 
E_coul   =   5681886.1492 E_long   =  -7403832.0173 Press    =        76.5448 
Volume   =   8342165.1476 
---------------- Step     4050 ----- CPU =    256.0160 (sec) ----------------
TotEng   =   -680535.9556 KinEng   =    580238.2867 Temp     =       299.6618 
PotEng   =  -1260774.2423 E_bond   =     69558.9860 E_angle  =    298392.4093 
E_dihed  =    142295.9996 E_impro  =      6049.6154 E_vdwl   =    -54900.1505 
E_coul   =   5681649.6133 E_long   =  -7403820.7152 Press    =       -50.2941 
Volume   =   8341959.9542 
---------------- Step     4100 ----- CPU =    259.1402 (sec) ----------------
TotEng   =   -681703.3683 KinEng   =    580829.7835 Temp     =       299.9673 
PotEng   =  -1262533.1518 E_bond   =     69761.4377 E_angle  =    297435.8566 
E_dihed  =    142045.3113 E_impro  =      5986.7325 E_vdwl   =    -55730.3180 
E_coul   =   5681760.1525 E_long   =  -7403792.3245 Press    =         9.4049 
Volume   =   8341794.5510 
---------------- Step     4150 ----- CPU =    262.3309 (sec) ----------------
TotEng   =   -682174.3915 KinEng   =    580223.1150 Temp     =       299.6540 
PotEng   =  -1262397.5065 E_bond   =     69401.0925 E_angle  =    297775.4304 
E_dihed  =    142374.7927 E_impro  =      5914.4686 E_vdwl   =    -55318.6940 
E_coul   =   5681296.5956 E_long   =  -7403841.1923 Press    =        41.6780 
Volume   =   8342449.6186 
---------------- Step     4200 ----- CPU =    265.4638 (sec) ----------------
TotEng   =   -680786.5776 KinEng   =    581190.5841 Temp     =       300.1536 
PotEng   =  -1261977.1617 E_bond   =     69395.8716 E_angle  =    298693.7989 
E_dihed  =    142024.2550 E_impro  =      6072.0154 E_vdwl   =    -56541.6771 
E_coul   =   5682157.2410 E_long   =  -7403778.6666 Press    =       -13.0611 
Volume   =   8343410.7919 
---------------- Step     4250 ----- CPU =    268.5995 (sec) ----------------
TotEng   =   -679418.7235 KinEng   =    581723.1544 Temp     =       300.4287 
PotEng   =  -1261141.8779 E_bond   =     69569.9925 E_angle  =    298517.8245 
E_dihed  =    142204.1342 E_impro  =      6113.6550 E_vdwl   =    -55616.2384 
E_coul   =   5681827.6791 E_long   =  -7403758.9247 Press    =       -25.5662 
Volume   =   8344102.7320 
---------------- Step     4300 ----- CPU =    271.7909 (sec) ----------------
TotEng   =   -679011.3568 KinEng   =    581097.2296 Temp     =       300.1054 
PotEng   =  -1260108.5864 E_bond   =     69949.1847 E_angle  =    299070.2459 
E_dihed  =    142186.3672 E_impro  =      6070.8447 E_vdwl   =    -55741.8340 
E_coul   =   5682161.1895 E_long   =  -7403804.5844 Press    =       -67.6743 
Volume   =   8344497.0676 
---------------- Step     4350 ----- CPU =    274.9177 (sec) ----------------
TotEng   =   -680101.1808 KinEng   =    580351.5949 Temp     =       299.7203 
PotEng   =  -1260452.7757 E_bond   =     69456.1541 E_angle  =    298581.1891 
E_dihed  =    142182.0318 E_impro  =      6090.1776 E_vdwl   =    -56408.5486 
E_coul   =   5683424.6504 E_long   =  -7403778.4302 Press    =        64.8393 
Volume   =   8343782.9126 
---------------- Step     4400 ----- CPU =    278.1065 (sec) ----------------
TotEng   =   -681269.8955 KinEng   =    580733.0190 Temp     =       299.9173 
PotEng   =  -1262002.9145 E_bond   =     69544.4830 E_angle  =    298571.8658 
E_dihed  =    141891.8333 E_impro  =      6094.4741 E_vdwl   =    -56105.2165 
E_coul   =   5681807.7215 E_long   =  -7403808.0757 Press    =       -55.7818 
Volume   =   8342564.0476 
---------------- Step     4450 ----- CPU =    281.2457 (sec) ----------------
TotEng   =   -681731.1697 KinEng   =    580381.0673 Temp     =       299.7356 
PotEng   =  -1262112.2370 E_bond   =     69443.5681 E_angle  =    298464.0930 
E_dihed  =    141781.0434 E_impro  =      6045.9174 E_vdwl   =    -56284.4983 
E_coul   =   5682205.2870 E_long   =  -7403767.6477 Press    =       -56.1082 
Volume   =   8341178.4172 
---------------- Step     4500 ----- CPU =    284.3842 (sec) ----------------
TotEng   =   -681407.6960 KinEng   =    580811.8293 Temp     =       299.9580 
PotEng   =  -1262219.5254 E_bond   =     69764.9951 E_angle  =    297860.5579 
E_dihed  =    142056.2554 E_impro  =      6028.1257 E_vdwl   =    -56000.2250 
E_coul   =   5681830.8420 E_long   =  -7403760.0764 Press    =       -64.0459 
Volume   =   8339336.8971 
---------------- Step     4550 ----- CPU =    287.5841 (sec) ----------------
TotEng   =   -680572.7272 KinEng   =    579507.2303 Temp     =       299.2843 
PotEng   =  -1260079.9575 E_bond   =     70001.3387 E_angle  =    299699.1025 
E_dihed  =    141901.0140 E_impro  =      6068.3088 E_vdwl   =    -55488.6828 
E_coul   =   5681584.7839 E_long   =  -7403845.8227 Press    =         8.0410 
Volume   =   8337698.4253 
---------------- Step     4600 ----- CPU =    290.7266 (sec) ----------------
TotEng   =   -679823.8450 KinEng   =    580937.3378 Temp     =       300.0228 
PotEng   =  -1260761.1828 E_bond   =     70060.4766 E_angle  =    299103.0725 
E_dihed  =    141877.0930 E_impro  =      6026.2126 E_vdwl   =    -55257.0379 
E_coul   =   5681233.3191 E_long   =  -7403804.3187 Press    =         3.4696 
Volume   =   8336469.8315 
---------------- Step     4650 ----- CPU =    293.9320 (sec) ----------------
TotEng   =   -680071.8116 KinEng   =    581066.1911 Temp     =       300.0894 
PotEng   =  -1261138.0027 E_bond   =     69763.8946 E_angle  =    299344.8760 
E_dihed  =    141987.4884 E_impro  =      6130.4052 E_vdwl   =    -56335.4060 
E_coul   =   5681803.6770 E_long   =  -7403832.9379 Press    =        -7.4366 
Volume   =   8335727.2517 
---------------- Step     4700 ----- CPU =    297.0688 (sec) ----------------
TotEng   =   -680726.8306 KinEng   =    580697.9355 Temp     =       299.8992 
PotEng   =  -1261424.7661 E_bond   =     69865.2791 E_angle  =    298849.7452 
E_dihed  =    141763.3924 E_impro  =      6057.6912 E_vdwl   =    -55157.5911 
E_coul   =   5680950.6807 E_long   =  -7403753.9636 Press    =        35.7842 
Volume   =   8334329.8404 
---------------- Step     4750 ----- CPU =    300.2047 (sec) ----------------
TotEng   =   -681446.5435 KinEng   =    580843.1495 Temp     =       299.9742 
PotEng   =  -1262289.6929 E_bond   =     70034.3256 E_angle  =    298495.8195 
E_dihed  =    142182.8197 E_impro  =      6042.2243 E_vdwl   =    -55369.6006 
E_coul   =   5680160.4400 E_long   =  -7403835.7213 Press    =       -58.7759 
Volume   =   8333988.4663 
---------------- Step     4800 ----- CPU =    303.4052 (sec) ----------------
TotEng   =   -682020.7186 KinEng   =    580946.4448 Temp     =       300.0275 
PotEng   =  -1262967.1634 E_bond   =     69492.1676 E_angle  =    298480.6206 
E_dihed  =    141938.9844 E_impro  =      5976.8891 E_vdwl   =    -55364.2909 
E_coul   =   5680349.9567 E_long   =  -7403841.4908 Press    =        49.6096 
Volume   =   8334375.0150 
---------------- Step     4850 ----- CPU =    306.5398 (sec) ----------------
TotEng   =   -681911.7030 KinEng   =    579984.9941 Temp     =       299.5310 
PotEng   =  -1261896.6971 E_bond   =     69469.5612 E_angle  =    298635.4824 
E_dihed  =    142014.0604 E_impro  =      6044.1808 E_vdwl   =    -56337.2622 
E_coul   =   5682106.2160 E_long   =  -7403828.9357 Press    =        -8.9693 
Volume   =   8334601.9776 
---------------- Step     4900 ----- CPU =    309.7343 (sec) ----------------
TotEng   =   -680909.8947 KinEng   =    580902.2363 Temp     =       300.0047 
PotEng   =  -1261812.1310 E_bond   =     70264.3878 E_angle  =    298520.5838 
E_dihed  =    142018.9120 E_impro  =      5950.0366 E_vdwl   =    -56075.1071 
E_coul   =   5681294.3113 E_long   =  -7403785.2555 Press    =       -31.4496 
Volume   =   8334786.3050 
---------------- Step     4950 ----- CPU =    312.8638 (sec) ----------------
TotEng   =   -680130.2434 KinEng   =    581317.2045 Temp     =       300.2190 
PotEng   =  -1261447.4479 E_bond   =     70022.0570 E_angle  =    298994.4681 
E_dihed  =    142159.4803 E_impro  =      6090.4830 E_vdwl   =    -55837.1442 
E_coul   =   5680876.9776 E_long   =  -7403753.7698 Press    =       -31.6631 
Volume   =   8335341.5119 
---------------- Step     5000 ----- CPU =    315.9973 (sec) ----------------
TotEng   =   -680822.6748 KinEng   =    581458.2037 Temp     =       300.2918 
PotEng   =  -1262280.8784 E_bond   =     69683.4268 E_angle  =    298614.3242 
E_dihed  =    142175.0824 E_impro  =      5985.9081 E_vdwl   =    -56360.4184 
E_coul   =   5681416.4214 E_long   =  -7403795.6228 Press    =       -51.9504 
Volume   =   8336130.5041 
---------------- Step     5050 ----- CPU =    319.1955 (sec) ----------------
TotEng   =   -682198.5181 KinEng   =    580479.0563 Temp     =       299.7862 
PotEng   =  -1262677.5744 E_bond   =     69847.6850 E_angle  =    298671.7831 
E_dihed  =    141936.2836 E_impro  =      5973.4760 E_vdwl   =    -57246.8050 
E_coul   =   5681911.1821 E_long   =  -7403771.1792 Press    =       -81.3432 
Volume   =   8336486.6079 
---------------- Step     5100 ----- CPU =    322.3294 (sec) ----------------
TotEng   =   -682718.4089 KinEng   =    579209.8397 Temp     =       299.1307 
PotEng   =  -1261928.2486 E_bond   =     69477.6517 E_angle  =    298967.7270 
E_dihed  =    142149.3455 E_impro  =      6119.7850 E_vdwl   =    -56562.1119 
E_coul   =   5681716.6243 E_long   =  -7403797.2702 Press    =       -36.6097 
Volume   =   8335924.5043 
---------------- Step     5150 ----- CPU =    325.4607 (sec) ----------------
TotEng   =   -681758.0525 KinEng   =    580333.0905 Temp     =       299.7108 
PotEng   =  -1262091.1430 E_bond   =     69577.6723 E_angle  =    298568.5335 
E_dihed  =    142194.9403 E_impro  =      6102.4403 E_vdwl   =    -55643.5497 
E_coul   =   5680954.1528 E_long   =  -7403845.3325 Press    =       -41.0072 
Volume   =   8335161.0434 
---------------- Step     5200 ----- CPU =    328.6546 (sec) ----------------
TotEng   =   -680282.0901 KinEng   =    581399.7142 Temp     =       300.2616 
PotEng   =  -1261681.8043 E_bond   =     69921.9222 E_angle  =    298821.7925 
E_dihed  =    142210.8672 E_impro  =      6152.3172 E_vdwl   =    -56402.1714 
E_coul   =   5681381.3300 E_long   =  -7403767.8621 Press    =       -15.7031 
Volume   =   8334916.1980 
---------------- Step     5250 ----- CPU =    331.7879 (sec) ----------------
TotEng   =   -680261.4469 KinEng   =    581317.7946 Temp     =       300.2193 
PotEng   =  -1261579.2416 E_bond   =     69656.2217 E_angle  =    299337.3276 
E_dihed  =    142151.0279 E_impro  =      6078.6470 E_vdwl   =    -55316.7871 
E_coul   =   5680379.6022 E_long   =  -7403865.2809 Press    =        16.2431 
Volume   =   8335178.6524 
---------------- Step     5300 ----- CPU =    334.9831 (sec) ----------------
TotEng   =   -681707.8090 KinEng   =    579586.8234 Temp     =       299.3254 
PotEng   =  -1261294.6324 E_bond   =     69699.8833 E_angle  =    299186.1242 
E_dihed  =    142173.3805 E_impro  =      6100.9814 E_vdwl   =    -56487.6635 
E_coul   =   5681811.9988 E_long   =  -7403779.3372 Press    =        24.2274 
Volume   =   8336287.3584 
---------------- Step     5350 ----- CPU =    338.1166 (sec) ----------------
TotEng   =   -682669.5894 KinEng   =    580721.2703 Temp     =       299.9113 
PotEng   =  -1263390.8597 E_bond   =     69719.4951 E_angle  =    298517.1802 
E_dihed  =    141688.8931 E_impro  =      5967.1422 E_vdwl   =    -55942.5853 
E_coul   =   5680437.7422 E_long   =  -7403778.7271 Press    =       -55.1811 
Volume   =   8337340.8443 
---------------- Step     5400 ----- CPU =    341.3169 (sec) ----------------
TotEng   =   -683051.2840 KinEng   =    580474.3271 Temp     =       299.7837 
PotEng   =  -1263525.6111 E_bond   =     69703.3853 E_angle  =    298819.0673 
E_dihed  =    141812.7779 E_impro  =      6036.1552 E_vdwl   =    -56493.7762 
E_coul   =   5680379.4673 E_long   =  -7403782.6879 Press    =       -11.7160 
Volume   =   8337761.2798 
---------------- Step     5450 ----- CPU =    344.4465 (sec) ----------------
TotEng   =   -682585.8634 KinEng   =    579832.1208 Temp     =       299.4521 
PotEng   =  -1262417.9842 E_bond   =     69591.5654 E_angle  =    299507.3526 
E_dihed  =    141818.0150 E_impro  =      6061.1250 E_vdwl   =    -57117.1542 
E_coul   =   5681504.9831 E_long   =  -7403783.8710 Press    =        11.2838 
Volume   =   8337498.8354 
---------------- Step     5500 ----- CPU =    347.6321 (sec) ----------------
TotEng   =   -681074.1815 KinEng   =    582016.8734 Temp     =       300.5804 
PotEng   =  -1263091.0550 E_bond   =     69962.1765 E_angle  =    298371.2795 
E_dihed  =    141961.6138 E_impro  =      6056.9317 E_vdwl   =    -56733.6250 
E_coul   =   5681083.9779 E_long   =  -7403793.4094 Press    =       -59.6773 
Volume   =   8337316.4746 
---------------- Step     5550 ----- CPU =    350.7575 (sec) ----------------
TotEng   =   -679982.9764 KinEng   =    581274.9804 Temp     =       300.1972 
PotEng   =  -1261257.9569 E_bond   =     70114.1867 E_angle  =    299248.6089 
E_dihed  =    141809.9500 E_impro  =      6037.2959 E_vdwl   =    -55530.8021 
E_coul   =   5680866.4831 E_long   =  -7403803.6794 Press    =       -14.0983 
Volume   =   8336654.1826 
---------------- Step     5600 ----- CPU =    353.9462 (sec) ----------------
TotEng   =   -680218.2885 KinEng   =    582713.0376 Temp     =       300.9399 
PotEng   =  -1262931.3262 E_bond   =     69441.0895 E_angle  =    299111.7665 
E_dihed  =    141821.2894 E_impro  =      6062.7511 E_vdwl   =    -55261.6578 
E_coul   =   5679763.5028 E_long   =  -7403870.0677 Press    =       101.6827 
Volume   =   8336559.4846 
---------------- Step     5650 ----- CPU =    357.0748 (sec) ----------------
TotEng   =   -681710.0992 KinEng   =    581223.1904 Temp     =       300.1705 
PotEng   =  -1262933.2896 E_bond   =     70111.4154 E_angle  =    298925.7425 
E_dihed  =    142023.5369 E_impro  =      6123.1307 E_vdwl   =    -55168.2979 
E_coul   =   5678855.6522 E_long   =  -7403804.4693 Press    =        -5.5469 
Volume   =   8336878.9191 
---------------- Step     5700 ----- CPU =    360.2123 (sec) ----------------
TotEng   =   -683334.7290 KinEng   =    580157.9449 Temp     =       299.6203 
PotEng   =  -1263492.6738 E_bond   =     69394.5347 E_angle  =    298340.0089 
E_dihed  =    142079.8001 E_impro  =      6058.5135 E_vdwl   =    -55678.3041 
E_coul   =   5680107.5646 E_long   =  -7403794.7915 Press    =       -27.2691 
Volume   =   8337065.9944 
---------------- Step     5750 ----- CPU =    363.4037 (sec) ----------------
TotEng   =   -683610.3285 KinEng   =    580267.5325 Temp     =       299.6769 
PotEng   =  -1263877.8609 E_bond   =     69182.7519 E_angle  =    298403.4799 
E_dihed  =    142111.2434 E_impro  =      6092.9721 E_vdwl   =    -56852.4092 
E_coul   =   5680999.5522 E_long   =  -7403815.4512 Press    =       -32.6161 
Volume   =   8337140.7784 
---------------- Step     5800 ----- CPU =    366.5320 (sec) ----------------
TotEng   =   -682055.0579 KinEng   =    580992.1310 Temp     =       300.0511 
PotEng   =  -1263047.1889 E_bond   =     69889.1097 E_angle  =    298661.4849 
E_dihed  =    142191.0676 E_impro  =      6117.6518 E_vdwl   =    -55271.8795 
E_coul   =   5679073.0613 E_long   =  -7403707.6846 Press    =       -12.8567 
Volume   =   8336093.9757 
---------------- Step     5850 ----- CPU =    369.6622 (sec) ----------------
TotEng   =   -680386.6082 KinEng   =    581596.1123 Temp     =       300.3631 
PotEng   =  -1261982.7204 E_bond   =     69872.5543 E_angle  =    299230.5446 
E_dihed  =    141971.5678 E_impro  =      6028.6602 E_vdwl   =    -54900.8017 
E_coul   =   5679673.8184 E_long   =  -7403859.0640 Press    =        -0.7834 
Volume   =   8334677.5727 
---------------- Step     5900 ----- CPU =    372.8537 (sec) ----------------
TotEng   =   -680035.6853 KinEng   =    581886.0388 Temp     =       300.5128 
PotEng   =  -1261921.7241 E_bond   =     69905.9721 E_angle  =    299150.7764 
E_dihed  =    142096.3918 E_impro  =      6136.6299 E_vdwl   =    -55074.4044 
E_coul   =   5679684.8862 E_long   =  -7403821.9762 Press    =         7.0200 
Volume   =   8334014.8788 
---------------- Step     5950 ----- CPU =    375.9825 (sec) ----------------
TotEng   =   -681308.6491 KinEng   =    580447.4890 Temp     =       299.7699 
PotEng   =  -1261756.1381 E_bond   =     69868.3579 E_angle  =    299575.8806 
E_dihed  =    142392.5234 E_impro  =      6079.1621 E_vdwl   =    -55858.7164 
E_coul   =   5680044.3070 E_long   =  -7403857.6528 Press    =       -40.6908 
Volume   =   8334281.4013 
---------------- Step     6000 ----- CPU =    379.1134 (sec) ----------------
TotEng   =   -683145.2653 KinEng   =    581426.7410 Temp     =       300.2756 
PotEng   =  -1264572.0063 E_bond   =     69579.4700 E_angle  =    298346.4724 
E_dihed  =    142230.9767 E_impro  =      5938.8162 E_vdwl   =    -56432.1485 
E_coul   =   5679718.4264 E_long   =  -7403954.0195 Press    =       -92.1183 
Volume   =   8334630.0407 
---------------- Step     6050 ----- CPU =    382.3068 (sec) ----------------
TotEng   =   -683974.8363 KinEng   =    579892.3803 Temp     =       299.4832 
PotEng   =  -1263867.2166 E_bond   =     69268.9234 E_angle  =    298504.4909 
E_dihed  =    142083.7777 E_impro  =      6075.9446 E_vdwl   =    -55438.6657 
E_coul   =   5679514.7460 E_long   =  -7403876.4336 Press    =        39.1221 
Volume   =   8334266.9010 
---------------- Step     6100 ----- CPU =    385.5045 (sec) ----------------
TotEng   =   -682919.3424 KinEng   =    580888.7608 Temp     =       299.9978 
PotEng   =  -1263808.1031 E_bond   =     69908.3899 E_angle  =    298325.4495 
E_dihed  =    142027.5091 E_impro  =      5982.1450 E_vdwl   =    -54890.0127 
E_coul   =   5678713.0738 E_long   =  -7403874.6578 Press    =       -64.5987 
Volume   =   8334461.4462 
---------------- Step     6150 ----- CPU =    388.6412 (sec) ----------------
TotEng   =   -681215.1646 KinEng   =    581036.9551 Temp     =       300.0743 
PotEng   =  -1262252.1197 E_bond   =     69765.0640 E_angle  =    299879.6712 
E_dihed  =    141904.7972 E_impro  =      6019.3813 E_vdwl   =    -54764.3356 
E_coul   =   5678726.5839 E_long   =  -7403783.2817 Press    =        35.1189 
Volume   =   8334659.4797 
---------------- Step     6200 ----- CPU =    391.7765 (sec) ----------------
TotEng   =   -680903.0471 KinEng   =    581390.8736 Temp     =       300.2571 
PotEng   =  -1262293.9207 E_bond   =     69784.6166 E_angle  =    299461.1378 
E_dihed  =    142068.7067 E_impro  =      6128.5954 E_vdwl   =    -55476.7394 
E_coul   =   5679509.4146 E_long   =  -7403769.6524 Press    =       -37.6161 
Volume   =   8335406.6069 
---------------- Step     6250 ----- CPU =    394.9792 (sec) ----------------
TotEng   =   -681816.9442 KinEng   =    580431.6325 Temp     =       299.7617 
PotEng   =  -1262248.5766 E_bond   =     69960.6255 E_angle  =    299215.7560 
E_dihed  =    142384.7200 E_impro  =      6011.1938 E_vdwl   =    -54847.1319 
E_coul   =   5678739.8738 E_long   =  -7403713.6138 Press    =       -14.9344 
Volume   =   8336491.5891 
---------------- Step     6300 ----- CPU =    398.1189 (sec) ----------------
TotEng   =   -683036.8699 KinEng   =    580939.0570 Temp     =       300.0237 
PotEng   =  -1263975.9269 E_bond   =     69760.3517 E_angle  =    298627.7183 
E_dihed  =    141981.1982 E_impro  =      6008.8511 E_vdwl   =    -55284.0586 
E_coul   =   5678697.4393 E_long   =  -7403767.4268 Press    =        -2.8909 
Volume   =   8338007.7505 
---------------- Step     6350 ----- CPU =    401.3263 (sec) ----------------
TotEng   =   -683314.9254 KinEng   =    580531.2719 Temp     =       299.8131 
PotEng   =  -1263846.1973 E_bond   =     69710.1022 E_angle  =    298208.1057 
E_dihed  =    142104.6375 E_impro  =      6008.2651 E_vdwl   =    -55541.7846 
E_coul   =   5679536.5580 E_long   =  -7403872.0811 Press    =       -41.2904 
Volume   =   8338672.9405 
---------------- Step     6400 ----- CPU =    404.4612 (sec) ----------------
TotEng   =   -682313.8351 KinEng   =    580456.6721 Temp     =       299.7746 
PotEng   =  -1262770.5073 E_bond   =     69730.4844 E_angle  =    299324.6398 
E_dihed  =    142066.6098 E_impro  =      6053.9344 E_vdwl   =    -55834.2581 
E_coul   =   5679644.3467 E_long   =  -7403756.2641 Press    =      -114.2734 
Volume   =   8339074.2820 
---------------- Step     6450 ----- CPU =    407.5925 (sec) ----------------
TotEng   =   -681110.6640 KinEng   =    581869.7651 Temp     =       300.5044 
PotEng   =  -1262980.4291 E_bond   =     70083.9378 E_angle  =    298889.5126 
E_dihed  =    142232.2220 E_impro  =      5916.9620 E_vdwl   =    -54977.2742 
E_coul   =   5678687.5544 E_long   =  -7403813.3436 Press    =       -51.0367 
Volume   =   8338722.7031 
---------------- Step     6500 ----- CPU =    410.7901 (sec) ----------------
TotEng   =   -680660.4820 KinEng   =    581741.8631 Temp     =       300.4383 
PotEng   =  -1262402.3451 E_bond   =     70071.7325 E_angle  =    299666.9516 
E_dihed  =    142174.7604 E_impro  =      6030.8412 E_vdwl   =    -55929.0138 
E_coul   =   5679421.5731 E_long   =  -7403839.1901 Press    =       -59.0158 
Volume   =   8337939.6128 
---------------- Step     6550 ----- CPU =    413.9221 (sec) ----------------
TotEng   =   -681651.4468 KinEng   =    580787.5286 Temp     =       299.9455 
PotEng   =  -1262438.9755 E_bond   =     69782.4939 E_angle  =    299288.8932 
E_dihed  =    142360.1530 E_impro  =      6089.6690 E_vdwl   =    -55457.1310 
E_coul   =   5679322.5816 E_long   =  -7403825.6353 Press    =        69.4998 
Volume   =   8336345.6863 
---------------- Step     6600 ----- CPU =    417.1165 (sec) ----------------
TotEng   =   -682939.6093 KinEng   =    580003.5331 Temp     =       299.5406 
PotEng   =  -1262943.1423 E_bond   =     69665.5397 E_angle  =    299107.4502 
E_dihed  =    142239.4020 E_impro  =      6122.5616 E_vdwl   =    -56301.3015 
E_coul   =   5679989.9700 E_long   =  -7403766.7644 Press    =       -60.4867 
Volume   =   8335281.3045 
---------------- Step     6650 ----- CPU =    420.2501 (sec) ----------------
TotEng   =   -683059.7640 KinEng   =    580356.4946 Temp     =       299.7229 
PotEng   =  -1263416.2586 E_bond   =     69380.6383 E_angle  =    299141.5480 
E_dihed  =    142198.6231 E_impro  =      6030.9518 E_vdwl   =    -55835.0705 
E_coul   =   5679467.3945 E_long   =  -7403800.3438 Press    =       -36.9997 
Volume   =   8334007.6214 
---------------- Step     6700 ----- CPU =    423.3835 (sec) ----------------
TotEng   =   -681879.7334 KinEng   =    581161.9673 Temp     =       300.1389 
PotEng   =  -1263041.7007 E_bond   =     69746.3894 E_angle  =    298946.6703 
E_dihed  =    142328.6183 E_impro  =      6136.2996 E_vdwl   =    -55794.2651 
E_coul   =   5679423.4353 E_long   =  -7403828.8484 Press    =       -34.6184 
Volume   =   8332571.8767 
---------------- Step     6750 ----- CPU =    426.5845 (sec) ----------------
TotEng   =   -680945.1222 KinEng   =    581702.5844 Temp     =       300.4181 
PotEng   =  -1262647.7066 E_bond   =     69937.0692 E_angle  =    299620.3980 
E_dihed  =    142305.3274 E_impro  =      5987.6351 E_vdwl   =    -55626.0792 
E_coul   =   5678934.6657 E_long   =  -7403806.7227 Press    =        70.2191 
Volume   =   8331567.3685 
---------------- Step     6800 ----- CPU =    429.7284 (sec) ----------------
TotEng   =   -681380.0452 KinEng   =    580998.0198 Temp     =       300.0542 
PotEng   =  -1262378.0649 E_bond   =     69840.7464 E_angle  =    299775.7774 
E_dihed  =    142075.4782 E_impro  =      5994.2695 E_vdwl   =    -55177.0709 
E_coul   =   5678853.9765 E_long   =  -7403741.2420 Press    =        22.8770 
Volume   =   8331626.7157 
---------------- Step     6850 ----- CPU =    432.9363 (sec) ----------------
TotEng   =   -682433.0918 KinEng   =    580824.1728 Temp     =       299.9644 
PotEng   =  -1263257.2646 E_bond   =     70175.1247 E_angle  =    299712.1223 
E_dihed  =    141912.3424 E_impro  =      6084.0643 E_vdwl   =    -55047.8419 
E_coul   =   5677718.6127 E_long   =  -7403811.6891 Press    =        41.9730 
Volume   =   8332454.9787 
---------------- Step     6900 ----- CPU =    436.0782 (sec) ----------------
TotEng   =   -683441.0791 KinEng   =    580215.9919 Temp     =       299.6503 
PotEng   =  -1263657.0710 E_bond   =     69807.3974 E_angle  =    299378.3071 
E_dihed  =    142419.4832 E_impro  =      5984.5721 E_vdwl   =    -56432.5210 
E_coul   =   5679007.5494 E_long   =  -7403821.8592 Press    =       -45.3893 
Volume   =   8333660.0043 
---------------- Step     6950 ----- CPU =    439.2187 (sec) ----------------
TotEng   =   -683075.9942 KinEng   =    579982.9145 Temp     =       299.5299 
PotEng   =  -1263058.9087 E_bond   =     69761.5696 E_angle  =    299719.5202 
E_dihed  =    142244.0179 E_impro  =      6105.7649 E_vdwl   =    -55737.6193 
E_coul   =   5678632.0863 E_long   =  -7403784.2482 Press    =       -55.4591 
Volume   =   8334069.6963 
---------------- Step     7000 ----- CPU =    442.4284 (sec) ----------------
TotEng   =   -681948.2497 KinEng   =    581027.8498 Temp     =       300.0696 
PotEng   =  -1262976.0995 E_bond   =     69703.9265 E_angle  =    299637.3435 
E_dihed  =    142264.1628 E_impro  =      5997.6264 E_vdwl   =    -55017.7224 
E_coul   =   5678319.7535 E_long   =  -7403881.1897 Press    =         3.5200 
Volume   =   8333555.9781 
---------------- Step     7050 ----- CPU =    445.5677 (sec) ----------------
TotEng   =   -681778.0918 KinEng   =    582008.2152 Temp     =       300.5759 
PotEng   =  -1263786.3071 E_bond   =     69809.2787 E_angle  =    299730.0508 
E_dihed  =    142057.9789 E_impro  =      6056.7744 E_vdwl   =    -56260.0342 
E_coul   =   5678606.7319 E_long   =  -7403787.0874 Press    =       -27.6440 
Volume   =   8333238.9250 
---------------- Step     7100 ----- CPU =    448.7103 (sec) ----------------
TotEng   =   -682793.8457 KinEng   =    580541.9946 Temp     =       299.8187 
PotEng   =  -1263335.8403 E_bond   =     69765.2114 E_angle  =    299362.6670 
E_dihed  =    142192.5378 E_impro  =      6107.9172 E_vdwl   =    -54193.3803 
E_coul   =   5677211.7889 E_long   =  -7403782.5822 Press    =        26.0706 
Volume   =   8332273.2708 
---------------- Step     7150 ----- CPU =    451.9118 (sec) ----------------
TotEng   =   -684207.6700 KinEng   =    580601.4601 Temp     =       299.8494 
PotEng   =  -1264809.1301 E_bond   =     69720.8917 E_angle  =    299287.9387 
E_dihed  =    141841.4084 E_impro  =      6115.7378 E_vdwl   =    -56319.7068 
E_coul   =   5678365.5462 E_long   =  -7403820.9461 Press    =       -59.0220 
Volume   =   8332309.6534 
---------------- Step     7200 ----- CPU =    455.0454 (sec) ----------------
TotEng   =   -684750.2434 KinEng   =    581236.1324 Temp     =       300.1772 
PotEng   =  -1265986.3758 E_bond   =     69759.9189 E_angle  =    298799.3590 
E_dihed  =    142219.0181 E_impro  =      6043.7408 E_vdwl   =    -56193.7916 
E_coul   =   5677177.1452 E_long   =  -7403791.7661 Press    =        -0.3019 
Volume   =   8332624.5535 
---------------- Step     7250 ----- CPU =    458.1815 (sec) ----------------
TotEng   =   -684067.0013 KinEng   =    579817.4896 Temp     =       299.4445 
PotEng   =  -1263884.4909 E_bond   =     69727.8414 E_angle  =    299606.6235 
E_dihed  =    142006.0681 E_impro  =      6064.4263 E_vdwl   =    -55651.2011 
E_coul   =   5678124.8542 E_long   =  -7403763.1033 Press    =        16.5091 
Volume   =   8332985.2967 
---------------- Step     7300 ----- CPU =    461.3228 (sec) ----------------
TotEng   =   -682108.9195 KinEng   =    580797.5707 Temp     =       299.9507 
PotEng   =  -1262906.4902 E_bond   =     70187.4442 E_angle  =    299302.1729 
E_dihed  =    142318.8840 E_impro  =      6147.8216 E_vdwl   =    -55723.9065 
E_coul   =   5678701.2561 E_long   =  -7403840.1624 Press    =       -40.4740 
Volume   =   8332948.1732 
---------------- Step     7350 ----- CPU =    464.5166 (sec) ----------------
TotEng   =   -680454.9105 KinEng   =    581792.2811 Temp     =       300.4644 
PotEng   =  -1262247.1915 E_bond   =     70004.7655 E_angle  =    299488.1731 
E_dihed  =    142375.0363 E_impro  =      6124.8941 E_vdwl   =    -55750.1635 
E_coul   =   5679347.8356 E_long   =  -7403837.7325 Press    =       -29.5726 
Volume   =   8332824.9948 
---------------- Step     7400 ----- CPU =    467.6505 (sec) ----------------
TotEng   =   -680602.5661 KinEng   =    582329.6328 Temp     =       300.7419 
PotEng   =  -1262932.1989 E_bond   =     69999.8637 E_angle  =    299621.2239 
E_dihed  =    141754.1083 E_impro  =      6085.7073 E_vdwl   =    -54827.2768 
E_coul   =   5678252.4375 E_long   =  -7403818.2628 Press    =       -29.2899 
Volume   =   8332857.5963 
---------------- Step     7450 ----- CPU =    470.7890 (sec) ----------------
TotEng   =   -682801.0433 KinEng   =    579737.2536 Temp     =       299.4031 
PotEng   =  -1262538.2969 E_bond   =     69812.7607 E_angle  =    299633.6639 
E_dihed  =    142352.0139 E_impro  =      6131.5535 E_vdwl   =    -54649.3912 
E_coul   =   5677978.4495 E_long   =  -7403797.3471 Press    =         7.2251 
Volume   =   8333368.5833 
---------------- Step     7500 ----- CPU =    473.9897 (sec) ----------------
TotEng   =   -684473.3857 KinEng   =    579389.7224 Temp     =       299.2236 
PotEng   =  -1263863.1081 E_bond   =     69776.6367 E_angle  =    299132.3385 
E_dihed  =    141736.9679 E_impro  =      6070.2454 E_vdwl   =    -56174.1265 
E_coul   =   5679495.5613 E_long   =  -7403900.7314 Press    =       -63.0463 
Volume   =   8334196.7108 
---------------- Step     7550 ----- CPU =    477.1274 (sec) ----------------
TotEng   =   -683797.6039 KinEng   =    580837.6733 Temp     =       299.9714 
PotEng   =  -1264635.2772 E_bond   =     69653.8910 E_angle  =    299444.6059 
E_dihed  =    142037.9824 E_impro  =      6131.1675 E_vdwl   =    -54903.0364 
E_coul   =   5676795.6905 E_long   =  -7403795.5783 Press    =       -70.3727 
Volume   =   8334155.5547 
---------------- Step     7600 ----- CPU =    480.3242 (sec) ----------------
TotEng   =   -681987.4126 KinEng   =    581592.4021 Temp     =       300.3611 
PotEng   =  -1263579.8146 E_bond   =     69912.0765 E_angle  =    300075.5388 
E_dihed  =    141742.5585 E_impro  =      6093.8261 E_vdwl   =    -55482.4851 
E_coul   =   5677918.3411 E_long   =  -7403839.6705 Press    =       -12.3602 
Volume   =   8334875.2060 
---------------- Step     7650 ----- CPU =    483.4595 (sec) ----------------
TotEng   =   -681063.3250 KinEng   =    581792.1091 Temp     =       300.4643 
PotEng   =  -1262855.4341 E_bond   =     69789.5010 E_angle  =    299663.3318 
E_dihed  =    142199.4699 E_impro  =      6127.5731 E_vdwl   =    -55250.6871 
E_coul   =   5678488.5745 E_long   =  -7403873.1972 Press    =         5.9097 
Volume   =   8335232.4326 
---------------- Step     7700 ----- CPU =    486.6586 (sec) ----------------
TotEng   =   -681260.8783 KinEng   =    581865.9352 Temp     =       300.5024 
PotEng   =  -1263126.8135 E_bond   =     69651.4208 E_angle  =    300516.2923 
E_dihed  =    142085.9971 E_impro  =      6012.6989 E_vdwl   =    -55670.2956 
E_coul   =   5677994.6637 E_long   =  -7403717.5906 Press    =       -99.6516 
Volume   =   8334576.6822 
---------------- Step     7750 ----- CPU =    489.7912 (sec) ----------------
TotEng   =   -682937.1126 KinEng   =    581192.6626 Temp     =       300.1547 
PotEng   =  -1264129.7752 E_bond   =     69684.1838 E_angle  =    299547.8479 
E_dihed  =    141983.6817 E_impro  =      6137.6098 E_vdwl   =    -54860.8166 
E_coul   =   5677182.6700 E_long   =  -7403804.9519 Press    =       -28.4932 
Volume   =   8333279.7754 
---------------- Step     7800 ----- CPU =    492.9289 (sec) ----------------
TotEng   =   -684457.2781 KinEng   =    581040.9368 Temp     =       300.0763 
PotEng   =  -1265498.2149 E_bond   =     69832.3956 E_angle  =    298520.5810 
E_dihed  =    141792.8153 E_impro  =      6071.2553 E_vdwl   =    -55774.4108 
E_coul   =   5677901.1434 E_long   =  -7403841.9947 Press    =       -48.9864 
Volume   =   8332702.8491 
---------------- Step     7850 ----- CPU =    496.1248 (sec) ----------------
TotEng   =   -684590.3573 KinEng   =    580468.2022 Temp     =       299.7806 
PotEng   =  -1265058.5594 E_bond   =     69679.3627 E_angle  =    299099.1215 
E_dihed  =    141621.6574 E_impro  =      6020.9288 E_vdwl   =    -54615.3278 
E_coul   =   5676916.6759 E_long   =  -7403780.9779 Press    =        27.4370 
Volume   =   8331644.8537 
---------------- Step     7900 ----- CPU =    499.2543 (sec) ----------------
TotEng   =   -683334.8869 KinEng   =    581390.1577 Temp     =       300.2567 
PotEng   =  -1264725.0446 E_bond   =     69854.1324 E_angle  =    299863.0427 
E_dihed  =    141811.2672 E_impro  =      6070.4296 E_vdwl   =    -55402.0125 
E_coul   =   5676937.8648 E_long   =  -7403859.7687 Press    =       -18.3851 
Volume   =   8331098.3832 
---------------- Step     7950 ----- CPU =    502.4515 (sec) ----------------
TotEng   =   -682466.9811 KinEng   =    581500.7516 Temp     =       300.3138 
PotEng   =  -1263967.7327 E_bond   =     70443.3490 E_angle  =    299640.7382 
E_dihed  =    141632.2608 E_impro  =      5939.5177 E_vdwl   =    -54891.8571 
E_coul   =   5677080.4756 E_long   =  -7403812.2169 Press    =      -125.5693 
Volume   =   8330187.9739 
---------------- Step     8000 ----- CPU =    505.5865 (sec) ----------------
TotEng   =   -682686.4926 KinEng   =    581309.0336 Temp     =       300.2148 
PotEng   =  -1263995.5262 E_bond   =     70029.5878 E_angle  =    299700.4787 
E_dihed  =    141733.0962 E_impro  =      5974.8570 E_vdwl   =    -54547.7279 
E_coul   =   5676966.8969 E_long   =  -7403852.7148 Press    =        69.0982 
Volume   =   8328967.9519 
---------------- Step     8050 ----- CPU =    508.7273 (sec) ----------------
TotEng   =   -683497.6736 KinEng   =    580121.7770 Temp     =       299.6016 
PotEng   =  -1263619.4507 E_bond   =     70219.1642 E_angle  =    299887.7941 
E_dihed  =    141803.4368 E_impro  =      6071.8798 E_vdwl   =    -55843.8884 
E_coul   =   5678023.8453 E_long   =  -7403781.6824 Press    =       -58.4110 
Volume   =   8328607.0712 
---------------- Step     8100 ----- CPU =    511.9322 (sec) ----------------
TotEng   =   -683811.1700 KinEng   =    580922.1530 Temp     =       300.0150 
PotEng   =  -1264733.3229 E_bond   =     69938.1959 E_angle  =    299615.7003 
E_dihed  =    141815.0655 E_impro  =      6054.3103 E_vdwl   =    -55618.2157 
E_coul   =   5677335.1597 E_long   =  -7403873.5390 Press    =       -55.6099 
Volume   =   8328332.3118 
---------------- Step     8150 ----- CPU =    515.0715 (sec) ----------------
TotEng   =   -683415.8265 KinEng   =    581550.8251 Temp     =       300.3397 
PotEng   =  -1264966.6516 E_bond   =     70152.3897 E_angle  =    299494.0402 
E_dihed  =    141881.4291 E_impro  =      6022.6872 E_vdwl   =    -55952.1434 
E_coul   =   5677211.0611 E_long   =  -7403776.1154 Press    =       -17.8128 
Volume   =   8327811.1326 
---------------- Step     8200 ----- CPU =    518.2163 (sec) ----------------
TotEng   =   -683372.3291 KinEng   =    580587.4727 Temp     =       299.8422 
PotEng   =  -1263959.8018 E_bond   =     70035.8310 E_angle  =    300006.8381 
E_dihed  =    141932.7245 E_impro  =      6038.6020 E_vdwl   =    -55470.2632 
E_coul   =   5677345.3457 E_long   =  -7403848.8797 Press    =        11.9744 
Volume   =   8326746.2018 
---------------- Step     8250 ----- CPU =    521.4270 (sec) ----------------
TotEng   =   -683263.3217 KinEng   =    581073.0606 Temp     =       300.0929 
PotEng   =  -1264336.3824 E_bond   =     70161.5154 E_angle  =    299522.8994 
E_dihed  =    141842.4735 E_impro  =      5976.0115 E_vdwl   =    -55960.9926 
E_coul   =   5677960.2463 E_long   =  -7403838.5358 Press    =       -89.4412 
Volume   =   8325550.2565 
---------------- Step     8300 ----- CPU =    524.5659 (sec) ----------------
TotEng   =   -683449.2428 KinEng   =    581475.6754 Temp     =       300.3009 
PotEng   =  -1264924.9183 E_bond   =     70145.7582 E_angle  =    299201.5309 
E_dihed  =    141736.7094 E_impro  =      6058.2706 E_vdwl   =    -55747.0739 
E_coul   =   5677531.9972 E_long   =  -7403852.1108 Press    =       -14.5920 
Volume   =   8324103.2752 
---------------- Step     8350 ----- CPU =    527.7729 (sec) ----------------
TotEng   =   -683930.8074 KinEng   =    581261.5314 Temp     =       300.1903 
PotEng   =  -1265192.3388 E_bond   =     69794.2787 E_angle  =    299115.8875 
E_dihed  =    141524.2255 E_impro  =      5988.0138 E_vdwl   =    -54846.6788 
E_coul   =   5677061.8949 E_long   =  -7403829.9604 Press    =        17.6270 
Volume   =   8323016.1084 
---------------- Step     8400 ----- CPU =    530.9214 (sec) ----------------
TotEng   =   -684213.8302 KinEng   =    581276.6837 Temp     =       300.1981 
PotEng   =  -1265490.5139 E_bond   =     69988.4144 E_angle  =    299615.2855 
E_dihed  =    141431.6872 E_impro  =      6118.6966 E_vdwl   =    -55072.1011 
E_coul   =   5676305.8428 E_long   =  -7403878.3394 Press    =       -38.5877 
Volume   =   8322928.4238 
---------------- Step     8450 ----- CPU =    534.1230 (sec) ----------------
TotEng   =   -684369.1971 KinEng   =    580512.2912 Temp     =       299.8033 
PotEng   =  -1264881.4883 E_bond   =     70043.0593 E_angle  =    299549.8286 
E_dihed  =    141926.7921 E_impro  =      6089.2486 E_vdwl   =    -55416.6239 
E_coul   =   5676776.9639 E_long   =  -7403850.7570 Press    =        -2.2894 
Volume   =   8323169.8197 
---------------- Step     8500 ----- CPU =    537.2579 (sec) ----------------
TotEng   =   -684101.2906 KinEng   =    579976.3583 Temp     =       299.5265 
PotEng   =  -1264077.6489 E_bond   =     69952.2224 E_angle  =    300103.7839 
E_dihed  =    142005.3787 E_impro  =      6083.0473 E_vdwl   =    -54789.3439 
E_coul   =   5676425.4984 E_long   =  -7403858.2357 Press    =        -7.5314 
Volume   =   8322881.8593 
---------------- Step     8550 ----- CPU =    540.3970 (sec) ----------------
TotEng   =   -683383.5386 KinEng   =    581499.9817 Temp     =       300.3134 
PotEng   =  -1264883.5203 E_bond   =     69918.2149 E_angle  =    299703.2411 
E_dihed  =    141801.3033 E_impro  =      6161.4149 E_vdwl   =    -54550.8885 
E_coul   =   5675918.1213 E_long   =  -7403834.9273 Press    =         7.0634 
Volume   =   8322387.1762 
---------------- Step     8600 ----- CPU =    543.6008 (sec) ----------------
TotEng   =   -683096.2704 KinEng   =    581289.0990 Temp     =       300.2045 
PotEng   =  -1264385.3694 E_bond   =     69886.4115 E_angle  =    299430.5312 
E_dihed  =    142057.6151 E_impro  =      6096.8611 E_vdwl   =    -54998.2832 
E_coul   =   5676945.0218 E_long   =  -7403803.5269 Press    =       -26.9547 
Volume   =   8322897.3404 
---------------- Step     8650 ----- CPU =    546.7410 (sec) ----------------
TotEng   =   -683175.7292 KinEng   =    581501.2051 Temp     =       300.3140 
PotEng   =  -1264676.9344 E_bond   =     69929.3142 E_angle  =    299909.2221 
E_dihed  =    141699.8558 E_impro  =      6111.3983 E_vdwl   =    -55314.6752 
E_coul   =   5676827.2872 E_long   =  -7403839.3368 Press    =       -40.1189 
Volume   =   8323410.3944 
---------------- Step     8700 ----- CPU =    549.9462 (sec) ----------------
TotEng   =   -683641.4696 KinEng   =    580291.4923 Temp     =       299.6893 
PotEng   =  -1263932.9619 E_bond   =     69574.9175 E_angle  =    300265.1072 
E_dihed  =    142057.1156 E_impro  =      6076.4033 E_vdwl   =    -54740.3247 
E_coul   =   5676647.8600 E_long   =  -7403814.0407 Press    =        43.3539 
Volume   =   8323831.8988 
---------------- Step     8750 ----- CPU =    553.0838 (sec) ----------------
TotEng   =   -683703.5263 KinEng   =    580476.1686 Temp     =       299.7847 
PotEng   =  -1264179.6949 E_bond   =     70264.9238 E_angle  =    299617.7457 
E_dihed  =    142154.2751 E_impro  =      6136.6100 E_vdwl   =    -56130.9756 
E_coul   =   5677602.0795 E_long   =  -7403824.3533 Press    =       -73.2420 
Volume   =   8325202.0270 
---------------- Step     8800 ----- CPU =    556.2784 (sec) ----------------
TotEng   =   -683222.1206 KinEng   =    581283.3044 Temp     =       300.2015 
PotEng   =  -1264505.4251 E_bond   =     69962.0652 E_angle  =    299859.1417 
E_dihed  =    142276.2534 E_impro  =      6052.8145 E_vdwl   =    -55935.4862 
E_coul   =   5677095.3515 E_long   =  -7403815.5652 Press    =       -86.6911 
Volume   =   8325862.3033 
---------------- Step     8850 ----- CPU =    559.4145 (sec) ----------------
TotEng   =   -682524.9710 KinEng   =    580851.1818 Temp     =       299.9783 
PotEng   =  -1263376.1528 E_bond   =     70281.6041 E_angle  =    300259.8625 
E_dihed  =    141995.9482 E_impro  =      6066.3290 E_vdwl   =    -55814.8831 
E_coul   =   5677671.2832 E_long   =  -7403836.2967 Press    =       -17.7373 
Volume   =   8326019.3576 
---------------- Step     8900 ----- CPU =    562.6174 (sec) ----------------
TotEng   =   -682427.1034 KinEng   =    581358.0868 Temp     =       300.2401 
PotEng   =  -1263785.1901 E_bond   =     70299.0296 E_angle  =    299783.8679 
E_dihed  =    142087.0091 E_impro  =      6040.3292 E_vdwl   =    -55618.6675 
E_coul   =   5677376.1889 E_long   =  -7403752.9475 Press    =       -79.8779 
Volume   =   8326124.5782 
---------------- Step     8950 ----- CPU =    565.7555 (sec) ----------------
TotEng   =   -683337.7124 KinEng   =    581279.7120 Temp     =       300.1997 
PotEng   =  -1264617.4244 E_bond   =     70002.2590 E_angle  =    300267.8370 
E_dihed  =    141830.5534 E_impro  =      6104.8836 E_vdwl   =    -55573.8981 
E_coul   =   5676531.2019 E_long   =  -7403780.2612 Press    =       -62.2682 
Volume   =   8326878.1024 
---------------- Step     9000 ----- CPU =    568.9574 (sec) ----------------
TotEng   =   -685195.6334 KinEng   =    579956.5866 Temp     =       299.5163 
PotEng   =  -1265152.2200 E_bond   =     69946.6763 E_angle  =    299235.8124 
E_dihed  =    141886.7980 E_impro  =      6056.6413 E_vdwl   =    -54600.7087 
E_coul   =   5676171.6809 E_long   =  -7403849.1202 Press    =        28.0407 
Volume   =   8326467.5624 
---------------- Step     9050 ----- CPU =    572.0965 (sec) ----------------
TotEng   =   -685639.2922 KinEng   =    580672.2889 Temp     =       299.8860 
PotEng   =  -1266311.5811 E_bond   =     69638.3969 E_angle  =    299303.6766 
E_dihed  =    141930.7112 E_impro  =      6008.7847 E_vdwl   =    -55304.4905 
E_coul   =   5675919.3571 E_long   =  -7403808.0171 Press    =       -61.5297 
Volume   =   8326624.7433 
---------------- Step     9100 ----- CPU =    575.2997 (sec) ----------------
TotEng   =   -684437.2302 KinEng   =    581106.0525 Temp     =       300.1100 
PotEng   =  -1265543.2827 E_bond   =     70238.7796 E_angle  =    299319.3403 
E_dihed  =    141934.2943 E_impro  =      5960.4055 E_vdwl   =    -55519.9096 
E_coul   =   5676366.0100 E_long   =  -7403842.2027 Press    =       -44.9726 
Volume   =   8326005.5577 
---------------- Step     9150 ----- CPU =    578.4395 (sec) ----------------
TotEng   =   -682549.5665 KinEng   =    581593.7642 Temp     =       300.3619 
PotEng   =  -1264143.3307 E_bond   =     69858.9570 E_angle  =    299692.3337 
E_dihed  =    142548.4122 E_impro  =      6113.5138 E_vdwl   =    -55417.1762 
E_coul   =   5676939.3596 E_long   =  -7403878.7307 Press    =         8.2752 
Volume   =   8324634.9795 
---------------- Step     9200 ----- CPU =    581.5913 (sec) ----------------
TotEng   =   -681855.2548 KinEng   =    581465.4312 Temp     =       300.2956 
PotEng   =  -1263320.6861 E_bond   =     69966.7383 E_angle  =    300634.1262 
E_dihed  =    142368.5298 E_impro  =      6116.3010 E_vdwl   =    -54491.9064 
E_coul   =   5675927.9336 E_long   =  -7403842.4086 Press    =         2.6108 
Volume   =   8323603.8909 
---------------- Step     9250 ----- CPU =    584.7973 (sec) ----------------
TotEng   =   -682668.6002 KinEng   =    581178.4011 Temp     =       300.1473 
PotEng   =  -1263847.0012 E_bond   =     70115.3479 E_angle  =    300668.0170 
E_dihed  =    141777.9844 E_impro  =      6159.9793 E_vdwl   =    -55615.5783 
E_coul   =   5676816.8456 E_long   =  -7403769.5972 Press    =       -66.1040 
Volume   =   8323327.1202 
---------------- Step     9300 ----- CPU =    587.9405 (sec) ----------------
TotEng   =   -684370.5901 KinEng   =    580184.4728 Temp     =       299.6340 
PotEng   =  -1264555.0629 E_bond   =     70440.4741 E_angle  =    299560.7651 
E_dihed  =    142129.2520 E_impro  =      6019.5697 E_vdwl   =    -54671.3295 
E_coul   =   5675737.0437 E_long   =  -7403770.8381 Press    =       -73.4072 
Volume   =   8323587.5048 
---------------- Step     9350 ----- CPU =    591.1460 (sec) ----------------
TotEng   =   -685552.4026 KinEng   =    579663.0386 Temp     =       299.3647 
PotEng   =  -1265215.4412 E_bond   =     70261.7891 E_angle  =    299743.4361 
E_dihed  =    141969.7250 E_impro  =      6022.8970 E_vdwl   =    -55013.4975 
E_coul   =   5675599.8654 E_long   =  -7403799.6564 Press    =         5.0449 
Volume   =   8324457.6512 
---------------- Step     9400 ----- CPU =    594.2859 (sec) ----------------
TotEng   =   -685608.0708 KinEng   =    580792.5504 Temp     =       299.9481 
PotEng   =  -1266400.6212 E_bond   =     69933.9882 E_angle  =    299720.8809 
E_dihed  =    141782.8600 E_impro  =      6024.3760 E_vdwl   =    -54738.3569 
E_coul   =   5674641.8837 E_long   =  -7403766.2530 Press    =        47.9061 
Volume   =   8325148.1880 
---------------- Step     9450 ----- CPU =    597.4264 (sec) ----------------
TotEng   =   -684711.6451 KinEng   =    580282.6412 Temp     =       299.6847 
PotEng   =  -1264994.2863 E_bond   =     70041.1223 E_angle  =    299393.5769 
E_dihed  =    142257.0088 E_impro  =      6048.9336 E_vdwl   =    -55128.5268 
E_coul   =   5676213.0928 E_long   =  -7403819.4939 Press    =       -54.3410 
Volume   =   8326615.3669 
---------------- Step     9500 ----- CPU =    600.6258 (sec) ----------------
TotEng   =   -682978.0673 KinEng   =    582108.8142 Temp     =       300.6278 
PotEng   =  -1265086.8815 E_bond   =     70116.5362 E_angle  =    299823.2390 
E_dihed  =    141967.4150 E_impro  =      6148.8023 E_vdwl   =    -54809.7330 
E_coul   =   5675517.2958 E_long   =  -7403850.4369 Press    =       -12.0200 
Volume   =   8326971.6803 
---------------- Step     9550 ----- CPU =    603.7613 (sec) ----------------
TotEng   =   -682362.1137 KinEng   =    580972.9005 Temp     =       300.0412 
PotEng   =  -1263335.0142 E_bond   =     70398.2828 E_angle  =    299867.6270 
E_dihed  =    142283.7250 E_impro  =      6132.7564 E_vdwl   =    -54911.6805 
E_coul   =   5676780.0431 E_long   =  -7403885.7680 Press    =         2.1936 
Volume   =   8327232.3962 
---------------- Step     9600 ----- CPU =    606.8957 (sec) ----------------
TotEng   =   -683218.4844 KinEng   =    580483.5988 Temp     =       299.7885 
PotEng   =  -1263702.0832 E_bond   =     70024.4704 E_angle  =    300260.6147 
E_dihed  =    141948.4645 E_impro  =      6130.0306 E_vdwl   =    -55079.0943 
E_coul   =   5676822.7850 E_long   =  -7403809.3541 Press    =        48.5728 
Volume   =   8327701.5046 
---------------- Step     9650 ----- CPU =    610.0990 (sec) ----------------
TotEng   =   -684020.6292 KinEng   =    581433.7181 Temp     =       300.2792 
PotEng   =  -1265454.3473 E_bond   =     70003.6186 E_angle  =    299588.2567 
E_dihed  =    141875.4692 E_impro  =      6114.5348 E_vdwl   =    -55706.6903 
E_coul   =   5676581.1500 E_long   =  -7403910.6862 Press    =        -6.7875 
Volume   =   8328304.9797 
---------------- Step     9700 ----- CPU =    613.2375 (sec) ----------------
TotEng   =   -684566.4054 KinEng   =    580818.9524 Temp     =       299.9617 
PotEng   =  -1265385.3578 E_bond   =     69999.0631 E_angle  =    299530.7493 
E_dihed  =    141796.0991 E_impro  =      6135.9490 E_vdwl   =    -55293.8699 
E_coul   =   5676280.5027 E_long   =  -7403833.8511 Press    =       -32.5724 
Volume   =   8328817.7682 
---------------- Step     9750 ----- CPU =    616.4345 (sec) ----------------
TotEng   =   -684529.7842 KinEng   =    580949.1548 Temp     =       300.0289 
PotEng   =  -1265478.9390 E_bond   =     70247.5039 E_angle  =    299509.4413 
E_dihed  =    141945.7934 E_impro  =      6105.1352 E_vdwl   =    -54644.7304 
E_coul   =   5675135.6091 E_long   =  -7403777.6915 Press    =        18.9383 
Volume   =   8329455.7760 
---------------- Step     9800 ----- CPU =    619.5693 (sec) ----------------
TotEng   =   -683880.1973 KinEng   =    580600.3952 Temp     =       299.8488 
PotEng   =  -1264480.5925 E_bond   =     70295.1006 E_angle  =    300171.5592 
E_dihed  =    141756.7137 E_impro  =      6107.5184 E_vdwl   =    -55592.5935 
E_coul   =   5676635.2661 E_long   =  -7403854.1571 Press    =       -27.6653 
Volume   =   8329796.0220 
---------------- Step     9850 ----- CPU =    622.6984 (sec) ----------------
TotEng   =   -682805.3272 KinEng   =    581242.8941 Temp     =       300.1806 
PotEng   =  -1264048.2213 E_bond   =     69956.5451 E_angle  =    300130.4107 
E_dihed  =    142040.5012 E_impro  =      5972.3869 E_vdwl   =    -55499.0410 
E_coul   =   5677232.0250 E_long   =  -7403881.0491 Press    =       -93.1225 
Volume   =   8329654.7763 
---------------- Step     9900 ----- CPU =    625.8910 (sec) ----------------
TotEng   =   -682161.0737 KinEng   =    581334.5347 Temp     =       300.2280 
PotEng   =  -1263495.6084 E_bond   =     70554.0118 E_angle  =    300510.1259 
E_dihed  =    142165.2585 E_impro  =      6022.9641 E_vdwl   =    -56068.5075 
E_coul   =   5677130.5720 E_long   =  -7403810.0332 Press    =      -174.7256 
Volume   =   8329294.1593 
---------------- Step     9950 ----- CPU =    629.0191 (sec) ----------------
TotEng   =   -682559.2338 KinEng   =    580585.7417 Temp     =       299.8413 
PotEng   =  -1263144.9754 E_bond   =     70108.4175 E_angle  =    300792.0070 
E_dihed  =    142011.4457 E_impro  =      6071.8304 E_vdwl   =    -55177.0523 
E_coul   =   5676886.2652 E_long   =  -7403837.8888 Press    =         2.8003 
Volume   =   8328187.1181 
---------------- Step    10000 ----- CPU =    632.1424 (sec) ----------------
TotEng   =   -683595.9206 KinEng   =    580305.3501 Temp     =       299.6965 
PotEng   =  -1263901.2707 E_bond   =     70405.2806 E_angle  =    299795.2287 
E_dihed  =    142185.8737 E_impro  =      6023.7652 E_vdwl   =    -55662.2585 
E_coul   =   5677176.7964 E_long   =  -7403825.9568 Press    =        13.9223 
Volume   =   8326914.6788 
Loop time of 632.142 on 32 procs for 10000 steps with 864000 atoms

Performance: 2.734 ns/day, 8.780 hours/ns, 15.819 timesteps/s
99.3% CPU use with 32 MPI tasks x 1 OpenMP threads

MPI task timing breakdown:
Section |  min time  |  avg time  |  max time  |%varavg| %total
---------------------------------------------------------------
Pair    | 372.61     | 377.59     | 385.87     |  17.7 | 59.73
Bond    | 18.65      | 23.666     | 28.905     |  85.2 |  3.74
Kspace  | 62.061     | 70.329     | 78.152     |  41.3 | 11.13
Neigh   | 56.041     | 56.187     | 56.32      |   1.1 |  8.89
Comm    | 33.392     | 34.286     | 36.811     |  17.6 |  5.42
Output  | 0.016719   | 0.016929   | 0.020916   |   0.6 |  0.00
Modify  | 61.29      | 65.896     | 67.345     |  24.4 | 10.42
Other   |            | 4.17       |            |       |  0.66

Nlocal:          27000 ave       27283 max       26734 min
Histogram: 1 6 5 4 0 2 4 5 3 2
Nghost:        43970.5 ave       44310 max       43524 min
Histogram: 1 1 3 2 7 4 3 4 6 1
Neighs:    1.01392e+07 ave 1.03346e+07 max 9.93926e+06 min
Histogram: 3 3 1 5 5 1 6 2 3 3

Total # of neighbors = 3.2445563e+08
Ave neighs/atom = 375.52735
Ave special neighs/atom = 7.431875
Neighbor list builds = 1277
Dangerous builds = 0
Total wall time: 0:10:32
Intel(R) VTune(TM) Profiler 2022.2.0 collection completed successfully. Use the "aps --report /home/ubuntu/lammps/bench/aps_result_20220704" command to generate textual and HTML reports for the profiling session.
