LAMMPS (7 Jan 2022)
  using 1 OpenMP thread(s) per MPI task
Reading data file ...
  orthogonal box = (-27.5 -38.5 -36.3646) to (27.5 38.5 36.3615)
  2 by 2 by 2 MPI processor grid
  reading atoms ...
  32000 atoms
  reading velocities ...
  32000 velocities
  scanning bonds ...
  4 = max bonds/atom
  scanning angles ...
  8 = max angles/atom
  scanning dihedrals ...
  18 = max dihedrals/atom
  scanning impropers ...
  2 = max impropers/atom
  reading bonds ...
  27723 bonds
  reading angles ...
  40467 angles
  reading dihedrals ...
  56829 dihedrals
  reading impropers ...
  1034 impropers
Finding 1-2 1-3 1-4 neighbors ...
  special bond factors lj:    0        0        0       
  special bond factors coul:  0        0        0       
     4 = max # of 1-2 neighbors
    12 = max # of 1-3 neighbors
    24 = max # of 1-4 neighbors
    26 = max # of special neighbors
  special bonds CPU = 0.020 seconds
  read_data CPU = 0.431 seconds
Replicating atoms ...
  orthogonal box = (-27.5 -38.5 -36.3646) to (82.5 115.5 109.0876)
  2 by 2 by 2 MPI processor grid
  256000 atoms
  221784 bonds
  323736 angles
  454632 dihedrals
  8272 impropers
Finding 1-2 1-3 1-4 neighbors ...
  special bond factors lj:    0        0        0       
  special bond factors coul:  0        0        0       
     4 = max # of 1-2 neighbors
    12 = max # of 1-3 neighbors
    24 = max # of 1-4 neighbors
    26 = max # of special neighbors
  special bonds CPU = 0.038 seconds
  replicate CPU = 0.093 seconds
Finding SHAKE clusters ...
   12936 = # of size 2 clusters
   29064 = # of size 3 clusters
    5976 = # of size 4 clusters
   33864 = # of frozen angles
  find clusters CPU = 0.027 seconds
Ewald initialization ...
  using 12-bit tables for long-range coulomb (../kspace.cpp:340)
  G vector (1/distance) = 0.24317651
  estimated absolute RMS force accuracy = 0.040677215
  estimated relative force accuracy = 0.00012249823
  KSpace vectors: actual max1d max3d = 41160 29 102689
                  kxmax kymax kzmax  = 22 29 28
----------------------------------------------------------
Using INTEL Package without Coprocessor.
Compiler: Intel Classic C++ 20.21.5 / Intel(R) C++ g++ 9.3 mode
SIMD compiler directives: Enabled
Precision: mixed
----------------------------------------------------------
  generated 2278 of 2278 mixed pair_coeff terms from arithmetic mixing rule
Neighbor list info ...
  update every 1 steps, delay 5 steps, check yes
  max neighbors/atom: 2000, page size: 100000
  master list distance cutoff = 12
  ghost atom cutoff = 12
  binsize = 6, bins = 19 26 25
  1 neighbor lists, perpetual/occasional/extra = 1 0 0
  (1) pair lj/charmm/coul/long/intel, perpetual
      attributes: half, newton on, intel
      pair build: half/bin/newton/intel
      stencil: half/bin/3d
      bin: intel
Setting up Verlet run ...
  Unit style    : real
  Current step  : 0
  Time step     : 2
Per MPI rank memory allocation (min/avg/max) = 600.2 | 600.2 | 600.2 Mbytes
---------------- Step        0 ----- CPU =      0.0000 (sec) ----------------
TotEng   =   -202873.9534 KinEng   =    171558.6503 Temp     =       299.0288 
PotEng   =   -374432.6037 E_bond   =     20303.9370 E_angle  =     87370.9630 
E_dihed  =     41694.2900 E_impro  =      1708.1116 E_vdwl   =    -18462.9090 
E_coul   =   1607174.8522 E_long   =  -2114221.8484 Press    =      -144.5084 
Volume   =   2463960.2680 
---------------- Step       50 ----- CPU =    576.0020 (sec) ----------------
TotEng   =   -202656.3246 KinEng   =    172009.0191 Temp     =       299.8138 
PotEng   =   -374665.3437 E_bond   =     19774.4576 E_angle  =     86693.1766 
E_dihed  =     41917.8366 E_impro  =      1816.8446 E_vdwl   =    -15947.5363 
E_coul   =   1605350.2738 E_long   =  -2114270.3967 Press    =       241.8046 
Volume   =   2464264.1288 
---------------- Step      100 ----- CPU =   1152.2616 (sec) ----------------
TotEng   =   -202342.7165 KinEng   =    172732.0545 Temp     =       301.0741 
PotEng   =   -375074.7710 E_bond   =     20546.2604 E_angle  =     86258.6433 
E_dihed  =     41589.4874 E_impro  =      1733.9041 E_vdwl   =    -15194.2148 
E_coul   =   1604222.5897 E_long   =  -2114231.4411 Press    =        13.0493 
Volume   =   2465113.7326 
Loop time of 1152.26 on 8 procs for 100 steps with 256000 atoms

Performance: 0.015 ns/day, 1600.363 hours/ns, 0.087 timesteps/s
81.0% CPU use with 8 MPI tasks x 1 OpenMP threads

MPI task timing breakdown:
Section |  min time  |  avg time  |  max time  |%varavg| %total
---------------------------------------------------------------
Pair    | 4.3704     | 4.9485     | 8.807      |  65.6 |  0.43
Bond    | 0.26023    | 0.2937     | 0.51701    |  15.6 |  0.03
Kspace  | 631.92     | 706.97     | 1140.5     | 620.0 | 61.36
Neigh   | 1.0583     | 1.0851     | 1.0918     |   1.1 |  0.09
Comm    | 0.4291     | 438.06     | 513.7      | 795.0 | 38.02
Output  | 0.00015949 | 0.00016741 | 0.0002114  |   0.0 |  0.00
Modify  | 0.77348    | 0.80459    | 0.8863     |   3.6 |  0.07
Other   |            | 0.09662    |            |       |  0.01

Nlocal:          32000 ave       32000 max       32000 min
Histogram: 8 0 0 0 0 0 0 0 0 0
Nghost:          47961 ave       47961 max       47961 min
Histogram: 8 0 0 0 0 0 0 0 0 0
Neighs:    1.20279e+07 ave 1.20569e+07 max 1.19988e+07 min
Histogram: 4 0 0 0 0 0 0 0 0 4

Total # of neighbors = 96222916
Ave neighs/atom = 375.87077
Ave special neighs/atom = 7.431875
Neighbor list builds = 11
Dangerous builds = 0
Total wall time: 0:19:24
Intel(R) VTune(TM) Profiler 2022.2.0 collection completed successfully. Use the "aps --report /home/ubuntu/lammps/bench/aps_result_20220530" command to generate textual and HTML reports for the profiling session.
