LAMMPS (7 Jan 2022)
  using 1 OpenMP thread(s) per MPI task
Reading data file ...
  orthogonal box = (-27.5 -38.5 -36.3646) to (27.5 38.5 36.3615)
  2 by 2 by 2 MPI processor grid
  reading atoms ...
  32000 atoms
  reading velocities ...
  32000 velocities
  scanning bonds ...
  4 = max bonds/atom
  scanning angles ...
  8 = max angles/atom
  scanning dihedrals ...
  18 = max dihedrals/atom
  scanning impropers ...
  2 = max impropers/atom
  reading bonds ...
  27723 bonds
  reading angles ...
  40467 angles
  reading dihedrals ...
  56829 dihedrals
  reading impropers ...
  1034 impropers
Finding 1-2 1-3 1-4 neighbors ...
  special bond factors lj:    0        0        0       
  special bond factors coul:  0        0        0       
     4 = max # of 1-2 neighbors
    12 = max # of 1-3 neighbors
    24 = max # of 1-4 neighbors
    26 = max # of special neighbors
  special bonds CPU = 0.005 seconds
  read_data CPU = 0.233 seconds
Replicating atoms ...
  orthogonal box = (-27.5 -38.5 -36.3646) to (82.5 115.5 109.0876)
  2 by 2 by 2 MPI processor grid
  256000 atoms
  221784 bonds
  323736 angles
  454632 dihedrals
  8272 impropers
Finding 1-2 1-3 1-4 neighbors ...
  special bond factors lj:    0        0        0       
  special bond factors coul:  0        0        0       
     4 = max # of 1-2 neighbors
    12 = max # of 1-3 neighbors
    24 = max # of 1-4 neighbors
    26 = max # of special neighbors
  special bonds CPU = 0.028 seconds
  replicate CPU = 0.066 seconds
Finding SHAKE clusters ...
   12936 = # of size 2 clusters
   29064 = # of size 3 clusters
    5976 = # of size 4 clusters
   33864 = # of frozen angles
  find clusters CPU = 0.014 seconds
PPPM initialization ...
  using 12-bit tables for long-range coulomb (../kspace.cpp:340)
  G vector (1/distance) = 0.3633795
  grid = 135 180 180
  stencil order = 7
  estimated absolute RMS force accuracy = 3.2544104e-05
  estimated relative force accuracy = 9.8005604e-08
  using single precision MKL FFT
  3d grid and FFT values/proc = 754677 558900
----------------------------------------------------------
Using INTEL Package without Coprocessor.
Compiler: Intel Classic C++ 20.21.5 / Intel(R) C++ g++ 9.3 mode
SIMD compiler directives: Enabled
Precision: mixed
----------------------------------------------------------
  generated 2278 of 2278 mixed pair_coeff terms from arithmetic mixing rule
Neighbor list info ...
  update every 1 steps, delay 5 steps, check yes
  max neighbors/atom: 2000, page size: 100000
  master list distance cutoff = 12
  ghost atom cutoff = 12
  binsize = 6, bins = 19 26 25
  1 neighbor lists, perpetual/occasional/extra = 1 0 0
  (1) pair lj/charmm/coul/long/intel, perpetual
      attributes: half, newton on, intel
      pair build: half/bin/newton/intel
      stencil: half/bin/3d
      bin: intel
Setting up Verlet run ...
  Unit style    : real
  Current step  : 0
  Time step     : 2
Per MPI rank memory allocation (min/avg/max) = 418.7 | 419.4 | 419.9 Mbytes
---------------- Step        0 ----- CPU =      0.0000 (sec) ----------------
TotEng   =   -202873.3226 KinEng   =    171558.6503 Temp     =       299.0288 
PotEng   =   -374431.9729 E_bond   =     20303.9370 E_angle  =     87370.9630 
E_dihed  =     41694.2900 E_impro  =      1708.1116 E_vdwl   =    -18462.9090 
E_coul   =   2643396.2815 E_long   =  -3150442.6469 Press    =      -153.0031 
Volume   =   2463960.2680 
---------------- Step       50 ----- CPU =      8.8290 (sec) ----------------
TotEng   =   -202663.5926 KinEng   =    172010.4840 Temp     =       299.8164 
PotEng   =   -374674.0766 E_bond   =     19773.2682 E_angle  =     86694.2406 
E_dihed  =     41915.8165 E_impro  =      1817.1653 E_vdwl   =    -15939.9553 
E_coul   =   2641679.6002 E_long   =  -3150614.2120 Press    =       234.7805 
Volume   =   2464248.8508 
---------------- Step      100 ----- CPU =     17.0999 (sec) ----------------
TotEng   =   -202303.5055 KinEng   =    172735.7194 Temp     =       301.0804 
PotEng   =   -375039.2249 E_bond   =     20543.0171 E_angle  =     86253.0062 
E_dihed  =     41588.4847 E_impro  =      1734.1990 E_vdwl   =    -15202.3840 
E_coul   =   2640617.4576 E_long   =  -3150573.0054 Press    =        12.1512 
Volume   =   2465060.0715 
Loop time of 17.1 on 8 procs for 100 steps with 256000 atoms

Performance: 1.011 ns/day, 23.750 hours/ns, 5.848 timesteps/s
97.3% CPU use with 8 MPI tasks x 1 OpenMP threads

MPI task timing breakdown:
Section |  min time  |  avg time  |  max time  |%varavg| %total
---------------------------------------------------------------
Pair    | 4.4875     | 4.524      | 4.5697     |   1.4 | 26.46
Bond    | 0.26783    | 0.26987    | 0.27283    |   0.3 |  1.58
Kspace  | 6.9224     | 6.9706     | 7.0054     |   1.1 | 40.76
Neigh   | 0.54659    | 0.5477     | 0.54848    |   0.1 |  3.20
Comm    | 0.2364     | 0.28054    | 0.32376    |   7.1 |  1.64
Output  | 0.00016259 | 0.00017614 | 0.00023408 |   0.0 |  0.00
Modify  | 4.3249     | 4.4216     | 4.5176     |   4.1 | 25.86
Other   |            | 0.08541    |            |       |  0.50

Nlocal:          32000 ave       32000 max       32000 min
Histogram: 8 0 0 0 0 0 0 0 0 0
Nghost:          47942 ave       47942 max       47942 min
Histogram: 8 0 0 0 0 0 0 0 0 0
Neighs:    1.20281e+07 ave 1.20571e+07 max 1.19991e+07 min
Histogram: 4 0 0 0 0 0 0 0 0 4

Total # of neighbors = 96224751
Ave neighs/atom = 375.87793
Ave special neighs/atom = 7.431875
Neighbor list builds = 11
Dangerous builds = 0
Total wall time: 0:00:17
Intel(R) VTune(TM) Profiler 2022.2.0 collection completed successfully. Use the "aps --report /home/ubuntu/lammps/bench/aps_result_20220601" command to generate textual and HTML reports for the profiling session.
