LAMMPS (7 Jan 2022)
  using 1 OpenMP thread(s) per MPI task
Reading data file ...
  orthogonal box = (-27.5 -38.5 -36.3646) to (27.5 38.5 36.3615)
  1 by 2 by 2 MPI processor grid
  reading atoms ...
  32000 atoms
  reading velocities ...
  32000 velocities
  scanning bonds ...
  4 = max bonds/atom
  scanning angles ...
  8 = max angles/atom
  scanning dihedrals ...
  18 = max dihedrals/atom
  scanning impropers ...
  2 = max impropers/atom
  reading bonds ...
  27723 bonds
  reading angles ...
  40467 angles
  reading dihedrals ...
  56829 dihedrals
  reading impropers ...
  1034 impropers
Finding 1-2 1-3 1-4 neighbors ...
  special bond factors lj:    0        0        0       
  special bond factors coul:  0        0        0       
     4 = max # of 1-2 neighbors
    12 = max # of 1-3 neighbors
    24 = max # of 1-4 neighbors
    26 = max # of special neighbors
  special bonds CPU = 0.006 seconds
  read_data CPU = 0.240 seconds
Finding SHAKE clusters ...
    1617 = # of size 2 clusters
    3633 = # of size 3 clusters
     747 = # of size 4 clusters
    4233 = # of frozen angles
  find clusters CPU = 0.003 seconds
PPPM initialization ...
  using 12-bit tables for long-range coulomb (../kspace.cpp:340)
  G vector (1/distance) = 0.25235202
  grid = 24 30 30
  stencil order = 7
  estimated absolute RMS force accuracy = 0.029803316
  estimated relative force accuracy = 8.9751802e-05
  using single precision MKL FFT
  3d grid and FFT values/proc = 15004 5760
----------------------------------------------------------
Using INTEL Package without Coprocessor.
Compiler: Intel Classic C++ 20.21.5 / Intel(R) C++ g++ 9.3 mode
SIMD compiler directives: Enabled
Precision: mixed
----------------------------------------------------------
  generated 2278 of 2278 mixed pair_coeff terms from arithmetic mixing rule
Neighbor list info ...
  update every 1 steps, delay 5 steps, check yes
  max neighbors/atom: 2000, page size: 100000
  master list distance cutoff = 12
  ghost atom cutoff = 12
  binsize = 6, bins = 10 13 13
  1 neighbor lists, perpetual/occasional/extra = 1 0 0
  (1) pair lj/charmm/coul/long/intel, perpetual
      attributes: half, newton on, intel
      pair build: half/bin/newton/intel
      stencil: half/bin/3d
      bin: intel
Setting up Verlet run ...
  Unit style    : real
  Current step  : 0
  Time step     : 2
Per MPI rank memory allocation (min/avg/max) = 106.4 | 106.9 | 108 Mbytes
---------------- Step        0 ----- CPU =      0.0000 (sec) ----------------
TotEng   =    -25358.1687 KinEng   =     21444.8313 Temp     =       299.0397 
PotEng   =    -46803.0000 E_bond   =      2537.9949 E_angle  =     10921.3721 
E_dihed  =      5211.7865 E_impro  =       213.5135 E_vdwl   =     -2307.8639 
E_coul   =    210834.7641 E_long   =   -274214.5673 Press    =      -148.6999 
Volume   =    307995.0335 
---------------- Step       50 ----- CPU =      1.1063 (sec) ----------------
TotEng   =    -25332.0841 KinEng   =     21500.5482 Temp     =       299.8166 
PotEng   =    -46832.6324 E_bond   =      2471.7321 E_angle  =     10836.5643 
E_dihed  =      5239.6305 E_impro  =       227.1289 E_vdwl   =     -1993.0624 
E_coul   =    210607.0485 E_long   =   -274221.6743 Press    =       238.8455 
Volume   =    308031.9402 
---------------- Step      100 ----- CPU =      2.1534 (sec) ----------------
TotEng   =    -25292.3593 KinEng   =     21588.2665 Temp     =       301.0398 
PotEng   =    -46880.6257 E_bond   =      2567.8633 E_angle  =     10781.8357 
E_dihed  =      5198.6631 E_impro  =       216.7583 E_vdwl   =     -1899.0482 
E_coul   =    210469.7855 E_long   =   -274216.4833 Press    =        14.3022 
Volume   =    308135.3231 
---------------- Step      150 ----- CPU =      3.0661 (sec) ----------------
TotEng   =    -25260.1258 KinEng   =     21534.2513 Temp     =       300.2866 
PotEng   =    -46794.3771 E_bond   =      2556.6646 E_angle  =     10854.0807 
E_dihed  =      5264.4394 E_impro  =       203.0007 E_vdwl   =     -2074.2785 
E_coul   =    210608.1034 E_long   =   -274206.3874 Press    =       244.0174 
Volume   =    308518.6137 
---------------- Step      200 ----- CPU =      3.8901 (sec) ----------------
TotEng   =    -25078.6718 KinEng   =     21540.2913 Temp     =       300.3708 
PotEng   =    -46618.9631 E_bond   =      2489.3962 E_angle  =     11075.6479 
E_dihed  =      5221.5675 E_impro  =       232.4421 E_vdwl   =     -2148.4370 
E_coul   =    210715.7663 E_long   =   -274205.3460 Press    =        40.9424 
Volume   =    308999.4304 
---------------- Step      250 ----- CPU =      4.7253 (sec) ----------------
TotEng   =    -24960.0011 KinEng   =     21533.4156 Temp     =       300.2749 
PotEng   =    -46493.4168 E_bond   =      2541.6107 E_angle  =     11095.6619 
E_dihed  =      5245.8700 E_impro  =       213.7022 E_vdwl   =     -2163.0511 
E_coul   =    210795.8100 E_long   =   -274223.0206 Press    =      -154.1328 
Volume   =    309392.6798 
---------------- Step      300 ----- CPU =      5.5438 (sec) ----------------
TotEng   =    -25027.4677 KinEng   =     21530.1896 Temp     =       300.2300 
PotEng   =    -46557.6573 E_bond   =      2560.7644 E_angle  =     10927.0049 
E_dihed  =      5221.5141 E_impro  =       224.2070 E_vdwl   =     -2165.8581 
E_coul   =    210882.1048 E_long   =   -274207.3944 Press    =      -382.8822 
Volume   =    309705.5340 
---------------- Step      350 ----- CPU =      6.3787 (sec) ----------------
TotEng   =    -25146.4712 KinEng   =     21589.0448 Temp     =       301.0507 
PotEng   =    -46735.5160 E_bond   =      2579.7731 E_angle  =     10958.7215 
E_dihed  =      5250.7814 E_impro  =       209.7628 E_vdwl   =     -2020.4389 
E_coul   =    210512.4280 E_long   =   -274226.5438 Press    =      -312.9328 
Volume   =    309848.7653 
---------------- Step      400 ----- CPU =      7.1948 (sec) ----------------
TotEng   =    -25282.5819 KinEng   =     21437.1585 Temp     =       298.9327 
PotEng   =    -46719.7403 E_bond   =      2541.3056 E_angle  =     10920.7945 
E_dihed  =      5217.7449 E_impro  =       214.7187 E_vdwl   =     -2027.0022 
E_coul   =    210629.2078 E_long   =   -274216.5096 Press    =       225.1880 
Volume   =    309901.2982 
---------------- Step      450 ----- CPU =      8.0099 (sec) ----------------
TotEng   =    -25319.5326 KinEng   =     21473.1455 Temp     =       299.4345 
PotEng   =    -46792.6781 E_bond   =      2492.8353 E_angle  =     10914.0593 
E_dihed  =      5271.5746 E_impro  =       224.9608 E_vdwl   =     -2165.9955 
E_coul   =    210680.6146 E_long   =   -274210.7272 Press    =       180.3364 
Volume   =    309992.4442 
---------------- Step      500 ----- CPU =      8.8412 (sec) ----------------
TotEng   =    -25149.8493 KinEng   =     21550.3575 Temp     =       300.5112 
PotEng   =    -46700.2068 E_bond   =      2588.1765 E_angle  =     10923.9917 
E_dihed  =      5235.3011 E_impro  =       220.4527 E_vdwl   =     -2241.5487 
E_coul   =    210782.1285 E_long   =   -274208.7086 Press    =      -331.4468 
Volume   =    310035.4397 
---------------- Step      550 ----- CPU =      9.6609 (sec) ----------------
TotEng   =    -24991.8342 KinEng   =     21561.6594 Temp     =       300.6688 
PotEng   =    -46553.4936 E_bond   =      2557.0667 E_angle  =     10994.3263 
E_dihed  =      5207.1617 E_impro  =       235.5004 E_vdwl   =     -2139.7269 
E_coul   =    210803.9486 E_long   =   -274211.7704 Press    =       320.0116 
Volume   =    310002.2352 
---------------- Step      600 ----- CPU =     10.4797 (sec) ----------------
TotEng   =    -24881.6314 KinEng   =     21732.7376 Temp     =       303.0544 
PotEng   =    -46614.3690 E_bond   =      2535.0565 E_angle  =     11009.3880 
E_dihed  =      5305.5172 E_impro  =       235.5732 E_vdwl   =     -2123.2933 
E_coul   =    210640.3999 E_long   =   -274217.0104 Press    =       237.6126 
Volume   =    310008.5111 
---------------- Step      650 ----- CPU =     11.3143 (sec) ----------------
TotEng   =    -24963.9576 KinEng   =     21611.0739 Temp     =       301.3579 
PotEng   =    -46575.0315 E_bond   =      2539.2135 E_angle  =     10902.2929 
E_dihed  =      5284.4026 E_impro  =       220.6668 E_vdwl   =     -2134.3072 
E_coul   =    210820.5822 E_long   =   -274207.8824 Press    =       -70.2285 
Volume   =    310101.8729 
---------------- Step      700 ----- CPU =     12.1324 (sec) ----------------
TotEng   =    -25038.1179 KinEng   =     21698.8355 Temp     =       302.5817 
PotEng   =    -46736.9534 E_bond   =      2516.3857 E_angle  =     11036.8717 
E_dihed  =      5235.9254 E_impro  =       213.7923 E_vdwl   =     -2299.7757 
E_coul   =    210765.2003 E_long   =   -274205.3530 Press    =       -68.4428 
Volume   =    310159.0018 
---------------- Step      750 ----- CPU =     12.9656 (sec) ----------------
TotEng   =    -25157.0786 KinEng   =     21516.7669 Temp     =       300.0428 
PotEng   =    -46673.8454 E_bond   =      2537.8817 E_angle  =     10969.6934 
E_dihed  =      5250.4086 E_impro  =       216.0301 E_vdwl   =     -2151.4707 
E_coul   =    210736.2257 E_long   =   -274232.6142 Press    =        44.7134 
Volume   =    310095.0462 
---------------- Step      800 ----- CPU =     13.7851 (sec) ----------------
TotEng   =    -25188.3173 KinEng   =     21472.8317 Temp     =       299.4301 
PotEng   =    -46661.1490 E_bond   =      2551.0673 E_angle  =     11018.4683 
E_dihed  =      5269.7245 E_impro  =       218.6717 E_vdwl   =     -2198.8279 
E_coul   =    210679.9910 E_long   =   -274200.2437 Press    =      -273.7209 
Volume   =    310023.4470 
---------------- Step      850 ----- CPU =     14.6087 (sec) ----------------
TotEng   =    -25064.3641 KinEng   =     21525.2003 Temp     =       300.1604 
PotEng   =    -46589.5644 E_bond   =      2514.6869 E_angle  =     10895.8615 
E_dihed  =      5308.2702 E_impro  =       221.7252 E_vdwl   =     -2196.9298 
E_coul   =    210884.8094 E_long   =   -274217.9878 Press    =       204.3765 
Volume   =    309781.7817 
---------------- Step      900 ----- CPU =     15.4304 (sec) ----------------
TotEng   =    -25015.6420 KinEng   =     21636.5231 Temp     =       301.7127 
PotEng   =    -46652.1651 E_bond   =      2526.4038 E_angle  =     10980.4072 
E_dihed  =      5264.6138 E_impro  =       225.8301 E_vdwl   =     -1989.1540 
E_coul   =    210541.8503 E_long   =   -274202.1162 Press    =       285.9588 
Volume   =    309498.3344 
---------------- Step      950 ----- CPU =     16.2633 (sec) ----------------
TotEng   =    -25125.4358 KinEng   =     21450.4609 Temp     =       299.1182 
PotEng   =    -46575.8967 E_bond   =      2578.0102 E_angle  =     10989.2770 
E_dihed  =      5289.2566 E_impro  =       230.6300 E_vdwl   =     -2037.6828 
E_coul   =    210573.3717 E_long   =   -274198.7594 Press    =       -12.7955 
Volume   =    309355.8110 
---------------- Step     1000 ----- CPU =     17.0824 (sec) ----------------
TotEng   =    -25263.7183 KinEng   =     21611.6749 Temp     =       301.3662 
PotEng   =    -46875.3932 E_bond   =      2494.2743 E_angle  =     10951.2213 
E_dihed  =      5279.8123 E_impro  =       212.7831 E_vdwl   =     -2089.5278 
E_coul   =    210487.9899 E_long   =   -274211.9464 Press    =         9.0638 
Volume   =    309243.6799 
---------------- Step     1050 ----- CPU =     17.9152 (sec) ----------------
TotEng   =    -25260.6359 KinEng   =     21455.2502 Temp     =       299.1850 
PotEng   =    -46715.8861 E_bond   =      2578.3925 E_angle  =     10915.6290 
E_dihed  =      5306.6900 E_impro  =       223.6988 E_vdwl   =     -2145.6970 
E_coul   =    210620.1746 E_long   =   -274214.7741 Press    =      -378.5569 
Volume   =    309192.2938 
---------------- Step     1100 ----- CPU =     18.7329 (sec) ----------------
TotEng   =    -25135.1184 KinEng   =     21489.9257 Temp     =       299.6685 
PotEng   =    -46625.0441 E_bond   =      2569.7878 E_angle  =     10932.9081 
E_dihed  =      5322.9870 E_impro  =       225.9830 E_vdwl   =     -2146.1068 
E_coul   =    210694.6496 E_long   =   -274225.2528 Press    =       -55.8089 
Volume   =    309060.7883 
---------------- Step     1150 ----- CPU =     19.5500 (sec) ----------------
TotEng   =    -25022.3422 KinEng   =     21633.4774 Temp     =       301.6703 
PotEng   =    -46655.8197 E_bond   =      2522.1766 E_angle  =     11056.8086 
E_dihed  =      5285.5399 E_impro  =       217.2996 E_vdwl   =     -2041.1203 
E_coul   =    210507.8186 E_long   =   -274204.3427 Press    =       482.6009 
Volume   =    308898.4916 
---------------- Step     1200 ----- CPU =     20.3686 (sec) ----------------
TotEng   =    -25058.8531 KinEng   =     21447.8964 Temp     =       299.0824 
PotEng   =    -46506.7495 E_bond   =      2641.5157 E_angle  =     10940.9838 
E_dihed  =      5342.9175 E_impro  =       226.2066 E_vdwl   =     -2043.5398 
E_coul   =    210598.8284 E_long   =   -274213.6615 Press    =       175.5814 
Volume   =    308908.6082 
---------------- Step     1250 ----- CPU =     21.1866 (sec) ----------------
TotEng   =    -25175.0058 KinEng   =     21484.6931 Temp     =       299.5955 
PotEng   =    -46659.6989 E_bond   =      2583.5945 E_angle  =     10916.9349 
E_dihed  =      5395.6857 E_impro  =       233.9554 E_vdwl   =     -2331.7438 
E_coul   =    210765.6013 E_long   =   -274223.7267 Press    =       -59.6426 
Volume   =    309061.9984 
---------------- Step     1300 ----- CPU =     22.0170 (sec) ----------------
TotEng   =    -25158.2252 KinEng   =     21426.8952 Temp     =       298.7896 
PotEng   =    -46585.1205 E_bond   =      2560.4660 E_angle  =     11026.6490 
E_dihed  =      5369.9224 E_impro  =       220.9616 E_vdwl   =     -2242.4927 
E_coul   =    210694.4194 E_long   =   -274215.0461 Press    =      -368.5504 
Volume   =    309101.7983 
---------------- Step     1350 ----- CPU =     22.8335 (sec) ----------------
TotEng   =    -24999.4317 KinEng   =     21575.9045 Temp     =       300.8674 
PotEng   =    -46575.3361 E_bond   =      2620.3392 E_angle  =     11037.1883 
E_dihed  =      5340.3311 E_impro  =       213.1856 E_vdwl   =     -2137.3410 
E_coul   =    210575.6968 E_long   =   -274224.7362 Press    =       -18.8106 
Volume   =    308998.2639 
---------------- Step     1400 ----- CPU =     23.6653 (sec) ----------------
TotEng   =    -24953.5829 KinEng   =     21738.9595 Temp     =       303.1412 
PotEng   =    -46692.5424 E_bond   =      2587.7542 E_angle  =     10954.3018 
E_dihed  =      5339.9609 E_impro  =       220.5661 E_vdwl   =     -2088.7204 
E_coul   =    210499.0076 E_long   =   -274205.4126 Press    =      -120.6994 
Volume   =    308851.4013 
---------------- Step     1450 ----- CPU =     24.5001 (sec) ----------------
TotEng   =    -25079.6391 KinEng   =     21487.2920 Temp     =       299.6318 
PotEng   =    -46566.9311 E_bond   =      2587.6756 E_angle  =     11003.5140 
E_dihed  =      5352.5007 E_impro  =       229.3398 E_vdwl   =     -2309.0098 
E_coul   =    210788.6901 E_long   =   -274219.6415 Press    =      -249.2138 
Volume   =    308617.4771 
---------------- Step     1500 ----- CPU =     25.3209 (sec) ----------------
TotEng   =    -25155.0701 KinEng   =     21519.5852 Temp     =       300.0821 
PotEng   =    -46674.6553 E_bond   =      2560.3244 E_angle  =     10943.4542 
E_dihed  =      5318.3655 E_impro  =       223.3668 E_vdwl   =     -2113.6357 
E_coul   =    210609.2314 E_long   =   -274215.7618 Press    =        94.2633 
Volume   =    308246.2521 
---------------- Step     1550 ----- CPU =     26.1441 (sec) ----------------
TotEng   =    -25223.0635 KinEng   =     21555.3976 Temp     =       300.5815 
PotEng   =    -46778.4611 E_bond   =      2545.8493 E_angle  =     10891.9360 
E_dihed  =      5316.1526 E_impro  =       226.3823 E_vdwl   =     -2073.6515 
E_coul   =    210516.9934 E_long   =   -274202.1231 Press    =       332.5907 
Volume   =    307922.9490 
---------------- Step     1600 ----- CPU =     26.9844 (sec) ----------------
TotEng   =    -25265.9441 KinEng   =     21507.0869 Temp     =       299.9078 
PotEng   =    -46773.0310 E_bond   =      2550.3600 E_angle  =     10939.0327 
E_dihed  =      5328.3534 E_impro  =       222.3771 E_vdwl   =     -2158.4708 
E_coul   =    210563.5128 E_long   =   -274218.1962 Press    =       334.6393 
Volume   =    307567.5655 
---------------- Step     1650 ----- CPU =     27.8120 (sec) ----------------
TotEng   =    -25307.5531 KinEng   =     21556.7770 Temp     =       300.6007 
PotEng   =    -46864.3301 E_bond   =      2542.7679 E_angle  =     10894.3782 
E_dihed  =      5318.9104 E_impro  =       240.6715 E_vdwl   =     -2147.8564 
E_coul   =    210498.3589 E_long   =   -274211.5606 Press    =        54.9658 
Volume   =    307375.5833 
---------------- Step     1700 ----- CPU =     28.6532 (sec) ----------------
TotEng   =    -25259.8577 KinEng   =     21399.4855 Temp     =       298.4073 
PotEng   =    -46659.3431 E_bond   =      2584.0311 E_angle  =     11082.3806 
E_dihed  =      5282.9699 E_impro  =       221.6968 E_vdwl   =     -2252.8757 
E_coul   =    210632.3141 E_long   =   -274209.8600 Press    =       -92.8556 
Volume   =    307339.1130 
---------------- Step     1750 ----- CPU =     29.4793 (sec) ----------------
TotEng   =    -25156.3489 KinEng   =     21451.1548 Temp     =       299.1279 
PotEng   =    -46607.5037 E_bond   =      2535.5882 E_angle  =     11065.7226 
E_dihed  =      5275.7123 E_impro  =       215.0237 E_vdwl   =     -2170.9461 
E_coul   =    210684.7924 E_long   =   -274213.3969 Press    =       297.9171 
Volume   =    307446.0484 
---------------- Step     1800 ----- CPU =     30.3201 (sec) ----------------
TotEng   =    -25110.9486 KinEng   =     21544.4310 Temp     =       300.4286 
PotEng   =    -46655.3796 E_bond   =      2578.2626 E_angle  =     11084.2484 
E_dihed  =      5222.3657 E_impro  =       226.5165 E_vdwl   =     -1850.8904 
E_coul   =    210294.6791 E_long   =   -274210.5615 Press    =       362.5338 
Volume   =    307600.9124 
---------------- Step     1850 ----- CPU =     31.1455 (sec) ----------------
TotEng   =    -25260.5639 KinEng   =     21468.4938 Temp     =       299.3696 
PotEng   =    -46729.0577 E_bond   =      2588.5919 E_angle  =     10967.5729 
E_dihed  =      5253.8397 E_impro  =       213.1857 E_vdwl   =     -2050.7642 
E_coul   =    210514.8539 E_long   =   -274216.3376 Press    =       135.5733 
Volume   =    307881.9544 
---------------- Step     1900 ----- CPU =     31.9684 (sec) ----------------
TotEng   =    -25273.6493 KinEng   =     21450.1564 Temp     =       299.1139 
PotEng   =    -46723.8057 E_bond   =      2550.3412 E_angle  =     11005.0746 
E_dihed  =      5296.6202 E_impro  =       237.8422 E_vdwl   =     -2226.3888 
E_coul   =    210627.0266 E_long   =   -274214.3217 Press    =        84.8975 
Volume   =    308160.9998 
---------------- Step     1950 ----- CPU =     32.8073 (sec) ----------------
TotEng   =    -25193.4036 KinEng   =     21484.5130 Temp     =       299.5930 
PotEng   =    -46677.9166 E_bond   =      2536.4718 E_angle  =     11109.1850 
E_dihed  =      5262.0293 E_impro  =       232.1181 E_vdwl   =     -2198.7017 
E_coul   =    210596.7375 E_long   =   -274215.7567 Press    =       179.8404 
Volume   =    308381.9455 
---------------- Step     2000 ----- CPU =     33.6463 (sec) ----------------
TotEng   =    -25065.3413 KinEng   =     21698.8612 Temp     =       302.5820 
PotEng   =    -46764.2024 E_bond   =      2534.5658 E_angle  =     10968.2642 
E_dihed  =      5308.0045 E_impro  =       226.2748 E_vdwl   =     -2200.0601 
E_coul   =    210605.3983 E_long   =   -274206.6499 Press    =         3.5256 
Volume   =    308648.0718 
---------------- Step     2050 ----- CPU =     34.4707 (sec) ----------------
TotEng   =    -25064.2020 KinEng   =     21536.3577 Temp     =       300.3160 
PotEng   =    -46600.5597 E_bond   =      2617.2803 E_angle  =     11092.5376 
E_dihed  =      5290.4998 E_impro  =       248.2003 E_vdwl   =     -2240.4446 
E_coul   =    210608.3019 E_long   =   -274216.9351 Press    =      -334.0915 
Volume   =    308923.7697 
---------------- Step     2100 ----- CPU =     35.2949 (sec) ----------------
TotEng   =    -25245.7250 KinEng   =     21523.4151 Temp     =       300.1355 
PotEng   =    -46769.1401 E_bond   =      2602.0238 E_angle  =     10906.2583 
E_dihed  =      5304.6613 E_impro  =       225.0455 E_vdwl   =     -2017.0765 
E_coul   =    210404.7320 E_long   =   -274194.7845 Press    =        58.9159 
Volume   =    309089.2861 
---------------- Step     2150 ----- CPU =     36.1326 (sec) ----------------
TotEng   =    -25388.3376 KinEng   =     21390.3112 Temp     =       298.2794 
PotEng   =    -46778.6488 E_bond   =      2583.7518 E_angle  =     10917.5062 
E_dihed  =      5274.8481 E_impro  =       212.0643 E_vdwl   =     -2108.0372 
E_coul   =    210572.0737 E_long   =   -274230.8558 Press    =      -235.6455 
Volume   =    309110.4825 
---------------- Step     2200 ----- CPU =     36.9579 (sec) ----------------
TotEng   =    -25314.2196 KinEng   =     21485.5159 Temp     =       299.6070 
PotEng   =    -46799.7355 E_bond   =      2628.3875 E_angle  =     11007.2367 
E_dihed  =      5257.6137 E_impro  =       234.4636 E_vdwl   =     -1997.5788 
E_coul   =    210292.6305 E_long   =   -274222.4887 Press    =      -532.2458 
Volume   =    309189.2616 
---------------- Step     2250 ----- CPU =     37.7965 (sec) ----------------
TotEng   =    -25289.9836 KinEng   =     21667.1205 Temp     =       302.1394 
PotEng   =    -46957.1041 E_bond   =      2560.0418 E_angle  =     10898.4445 
E_dihed  =      5214.9403 E_impro  =       222.0461 E_vdwl   =     -2094.8608 
E_coul   =    210468.6408 E_long   =   -274226.3567 Press    =        35.4533 
Volume   =    309261.4486 
---------------- Step     2300 ----- CPU =     38.6201 (sec) ----------------
TotEng   =    -25287.7533 KinEng   =     21398.8637 Temp     =       298.3987 
PotEng   =    -46686.6170 E_bond   =      2571.9995 E_angle  =     11072.4939 
E_dihed  =      5315.3496 E_impro  =       205.1529 E_vdwl   =     -2135.7902 
E_coul   =    210490.3058 E_long   =   -274206.1286 Press    =      -607.3701 
Volume   =    309386.7450 
---------------- Step     2350 ----- CPU =     39.4407 (sec) ----------------
TotEng   =    -25157.6887 KinEng   =     21466.8754 Temp     =       299.3471 
PotEng   =    -46624.5641 E_bond   =      2556.6060 E_angle  =     11038.5891 
E_dihed  =      5274.3484 E_impro  =       224.9606 E_vdwl   =     -2178.8017 
E_coul   =    210673.0372 E_long   =   -274213.3036 Press    =      -127.2357 
Volume   =    309414.7372 
---------------- Step     2400 ----- CPU =     40.2742 (sec) ----------------
TotEng   =    -24933.6419 KinEng   =     21652.9551 Temp     =       301.9419 
PotEng   =    -46586.5970 E_bond   =      2684.8360 E_angle  =     10963.3114 
E_dihed  =      5238.3866 E_impro  =       214.8687 E_vdwl   =     -2220.9115 
E_coul   =    210740.3030 E_long   =   -274207.3911 Press    =      -357.0868 
Volume   =    309383.7261 
---------------- Step     2450 ----- CPU =     41.0919 (sec) ----------------
TotEng   =    -24897.4747 KinEng   =     21806.7186 Temp     =       304.0860 
PotEng   =    -46704.1933 E_bond   =      2578.5502 E_angle  =     11070.2662 
E_dihed  =      5252.1721 E_impro  =       226.5012 E_vdwl   =     -2235.3031 
E_coul   =    210629.2356 E_long   =   -274225.6154 Press    =        70.7504 
Volume   =    309433.8022 
---------------- Step     2500 ----- CPU =     41.9092 (sec) ----------------
TotEng   =    -25152.4392 KinEng   =     21526.6636 Temp     =       300.1808 
PotEng   =    -46679.1028 E_bond   =      2572.6084 E_angle  =     11049.6390 
E_dihed  =      5282.9263 E_impro  =       209.8424 E_vdwl   =     -2236.2252 
E_coul   =    210663.8722 E_long   =   -274221.7658 Press    =      -367.6676 
Volume   =    309343.5865 
---------------- Step     2550 ----- CPU =     42.7426 (sec) ----------------
TotEng   =    -25334.9969 KinEng   =     21330.5803 Temp     =       297.4465 
PotEng   =    -46665.5773 E_bond   =      2629.1851 E_angle  =     10962.3350 
E_dihed  =      5270.3623 E_impro  =       217.6944 E_vdwl   =     -2099.0188 
E_coul   =    210557.4591 E_long   =   -274203.5943 Press    =        -6.9761 
Volume   =    308887.7573 
---------------- Step     2600 ----- CPU =     43.5632 (sec) ----------------
TotEng   =    -25321.1423 KinEng   =     21337.1973 Temp     =       297.5388 
PotEng   =    -46658.3396 E_bond   =      2610.9857 E_angle  =     11015.6786 
E_dihed  =      5263.6293 E_impro  =       216.8985 E_vdwl   =     -2000.2771 
E_coul   =    210451.5277 E_long   =   -274216.7822 Press    =       334.0484 
Volume   =    308375.3391 
---------------- Step     2650 ----- CPU =     44.3832 (sec) ----------------
TotEng   =    -25170.6913 KinEng   =     21521.5998 Temp     =       300.1102 
PotEng   =    -46692.2911 E_bond   =      2616.3588 E_angle  =     11038.1066 
E_dihed  =      5323.3610 E_impro  =       233.4242 E_vdwl   =     -2041.4535 
E_coul   =    210355.0527 E_long   =   -274217.1409 Press    =       424.3964 
Volume   =    308106.9394 
---------------- Step     2700 ----- CPU =     45.2194 (sec) ----------------
TotEng   =    -25169.5106 KinEng   =     21537.4468 Temp     =       300.3312 
PotEng   =    -46706.9573 E_bond   =      2606.9846 E_angle  =     11069.9570 
E_dihed  =      5289.1932 E_impro  =       213.5887 E_vdwl   =     -1996.4706 
E_coul   =    210318.1941 E_long   =   -274208.4043 Press    =      -377.6327 
Volume   =    308142.2465 
---------------- Step     2750 ----- CPU =     46.0558 (sec) ----------------
TotEng   =    -25283.4062 KinEng   =     21635.7818 Temp     =       301.7024 
PotEng   =    -46919.1880 E_bond   =      2490.6639 E_angle  =     11018.4790 
E_dihed  =      5274.6329 E_impro  =       232.9575 E_vdwl   =     -2062.0876 
E_coul   =    210336.2492 E_long   =   -274210.0829 Press    =        77.5873 
Volume   =    308159.0075 
---------------- Step     2800 ----- CPU =     46.8774 (sec) ----------------
TotEng   =    -25384.1833 KinEng   =     21463.2477 Temp     =       299.2965 
PotEng   =    -46847.4311 E_bond   =      2626.4564 E_angle  =     10933.3933 
E_dihed  =      5300.7961 E_impro  =       212.6646 E_vdwl   =     -2066.3935 
E_coul   =    210355.6125 E_long   =   -274209.9606 Press    =        51.9145 
Volume   =    308150.7913 
---------------- Step     2850 ----- CPU =     47.6968 (sec) ----------------
TotEng   =    -25463.0231 KinEng   =     21484.5088 Temp     =       299.5930 
PotEng   =    -46947.5319 E_bond   =      2579.0898 E_angle  =     11071.4801 
E_dihed  =      5215.9854 E_impro  =       228.5139 E_vdwl   =     -1978.0129 
E_coul   =    210160.9232 E_long   =   -274225.5113 Press    =       123.6276 
Volume   =    308223.9635 
---------------- Step     2900 ----- CPU =     48.5303 (sec) ----------------
TotEng   =    -25461.9751 KinEng   =     21530.5337 Temp     =       300.2348 
PotEng   =    -46992.5088 E_bond   =      2618.5236 E_angle  =     10909.1672 
E_dihed  =      5244.6633 E_impro  =       225.4205 E_vdwl   =     -1918.0080 
E_coul   =    210150.6606 E_long   =   -274222.9360 Press    =       103.6222 
Volume   =    308375.4828 
---------------- Step     2950 ----- CPU =     49.3506 (sec) ----------------
TotEng   =    -25337.5936 KinEng   =     21451.9186 Temp     =       299.1385 
PotEng   =    -46789.5121 E_bond   =      2584.8626 E_angle  =     11127.4966 
E_dihed  =      5311.8756 E_impro  =       234.0337 E_vdwl   =     -2062.3554 
E_coul   =    210227.0066 E_long   =   -274212.4318 Press    =       -53.9491 
Volume   =    308566.8680 
---------------- Step     3000 ----- CPU =     50.1825 (sec) ----------------
TotEng   =    -25112.6910 KinEng   =     21634.1320 Temp     =       301.6794 
PotEng   =    -46746.8230 E_bond   =      2567.4983 E_angle  =     11146.9941 
E_dihed  =      5231.6513 E_impro  =       216.0712 E_vdwl   =     -2109.5969 
E_coul   =    210407.5732 E_long   =   -274207.0143 Press    =      -254.6977 
Volume   =    308726.1683 
---------------- Step     3050 ----- CPU =     50.9993 (sec) ----------------
TotEng   =    -24940.1355 KinEng   =     21693.0274 Temp     =       302.5007 
PotEng   =    -46633.1630 E_bond   =      2582.8490 E_angle  =     10993.8629 
E_dihed  =      5301.1522 E_impro  =       207.9105 E_vdwl   =     -2046.8964 
E_coul   =    210536.9909 E_long   =   -274209.0320 Press    =       128.9789 
Volume   =    308899.8323 
---------------- Step     3100 ----- CPU =     51.8297 (sec) ----------------
TotEng   =    -24981.5640 KinEng   =     21713.9309 Temp     =       302.7922 
PotEng   =    -46695.4949 E_bond   =      2612.0162 E_angle  =     11133.3962 
E_dihed  =      5262.6087 E_impro  =       217.6159 E_vdwl   =     -2161.5825 
E_coul   =    210450.2339 E_long   =   -274209.7832 Press    =      -184.3618 
Volume   =    309237.2164 
---------------- Step     3150 ----- CPU =     52.6455 (sec) ----------------
TotEng   =    -25182.5044 KinEng   =     21553.8643 Temp     =       300.5601 
PotEng   =    -46736.3688 E_bond   =      2581.0413 E_angle  =     11074.0256 
E_dihed  =      5252.9669 E_impro  =       209.2223 E_vdwl   =     -2010.2413 
E_coul   =    210369.5642 E_long   =   -274212.9476 Press    =       378.3353 
Volume   =    309395.9799 
---------------- Step     3200 ----- CPU =     53.4617 (sec) ----------------
TotEng   =    -25351.6040 KinEng   =     21280.1770 Temp     =       296.7436 
PotEng   =    -46631.7809 E_bond   =      2548.7429 E_angle  =     11068.4591 
E_dihed  =      5244.6421 E_impro  =       214.0051 E_vdwl   =     -2120.3424 
E_coul   =    210609.0655 E_long   =   -274196.3533 Press    =      -271.1636 
Volume   =    309482.2583 
---------------- Step     3250 ----- CPU =     54.2927 (sec) ----------------
TotEng   =    -25243.3360 KinEng   =     21564.4660 Temp     =       300.7079 
PotEng   =    -46807.8020 E_bond   =      2583.6349 E_angle  =     11081.4637 
E_dihed  =      5190.6011 E_impro  =       221.9882 E_vdwl   =     -2020.2534 
E_coul   =    210348.0405 E_long   =   -274213.2771 Press    =       213.8592 
Volume   =    309411.3652 
---------------- Step     3300 ----- CPU =     55.1102 (sec) ----------------
TotEng   =    -25087.3345 KinEng   =     21568.9037 Temp     =       300.7698 
PotEng   =    -46656.2382 E_bond   =      2658.1473 E_angle  =     11022.5681 
E_dihed  =      5234.3782 E_impro  =       220.4202 E_vdwl   =     -2067.3139 
E_coul   =    210496.4043 E_long   =   -274220.8424 Press    =       -89.5781 
Volume   =    309375.0909 
---------------- Step     3350 ----- CPU =     55.9284 (sec) ----------------
TotEng   =    -24998.7411 KinEng   =     21592.2669 Temp     =       301.0956 
PotEng   =    -46591.0080 E_bond   =      2635.4337 E_angle  =     11021.0712 
E_dihed  =      5214.7377 E_impro  =       220.2328 E_vdwl   =     -2000.1097 
E_coul   =    210552.9058 E_long   =   -274235.2795 Press    =        14.2379 
Volume   =    309317.3084 
---------------- Step     3400 ----- CPU =     56.7611 (sec) ----------------
TotEng   =    -25115.8788 KinEng   =     21553.2915 Temp     =       300.5521 
PotEng   =    -46669.1702 E_bond   =      2547.6094 E_angle  =     11085.2539 
E_dihed  =      5244.3600 E_impro  =       225.9285 E_vdwl   =     -2166.9839 
E_coul   =    210625.5820 E_long   =   -274230.9201 Press    =         3.7897 
Volume   =    309356.1666 
---------------- Step     3450 ----- CPU =     57.5786 (sec) ----------------
TotEng   =    -25219.6096 KinEng   =     21596.8385 Temp     =       301.1594 
PotEng   =    -46816.4481 E_bond   =      2564.4625 E_angle  =     10964.1721 
E_dihed  =      5248.9929 E_impro  =       228.2708 E_vdwl   =     -2116.0657 
E_coul   =    210511.8789 E_long   =   -274218.1596 Press    =      -184.9284 
Volume   =    309526.0341 
---------------- Step     3500 ----- CPU =     58.3945 (sec) ----------------
TotEng   =    -25189.8164 KinEng   =     21319.0990 Temp     =       297.2864 
PotEng   =    -46508.9154 E_bond   =      2606.7707 E_angle  =     11020.1967 
E_dihed  =      5281.5843 E_impro  =       227.1638 E_vdwl   =     -1871.0456 
E_coul   =    210443.0135 E_long   =   -274216.5989 Press    =       -21.6674 
Volume   =    309645.2556 
---------------- Step     3550 ----- CPU =     59.2260 (sec) ----------------
TotEng   =    -25081.6531 KinEng   =     21565.4592 Temp     =       300.7218 
PotEng   =    -46647.1123 E_bond   =      2605.1385 E_angle  =     11087.9731 
E_dihed  =      5306.1376 E_impro  =       217.0672 E_vdwl   =     -2072.3877 
E_coul   =    210419.3385 E_long   =   -274210.3795 Press    =      -477.6482 
Volume   =    309841.1133 
---------------- Step     3600 ----- CPU =     60.0440 (sec) ----------------
TotEng   =    -25023.9139 KinEng   =     21619.2879 Temp     =       301.4724 
PotEng   =    -46643.2018 E_bond   =      2583.1388 E_angle  =     11063.2940 
E_dihed  =      5252.9180 E_impro  =       220.9934 E_vdwl   =     -2109.7140 
E_coul   =    210570.1450 E_long   =   -274223.9771 Press    =       180.6766 
Volume   =    309842.1305 
---------------- Step     3650 ----- CPU =     60.8761 (sec) ----------------
TotEng   =    -25077.6254 KinEng   =     21434.9795 Temp     =       298.9023 
PotEng   =    -46512.6050 E_bond   =      2629.3210 E_angle  =     11124.8526 
E_dihed  =      5187.7672 E_impro  =       216.7513 E_vdwl   =     -2123.1065 
E_coul   =    210658.6457 E_long   =   -274206.8362 Press    =      -221.3494 
Volume   =    309645.1150 
---------------- Step     3700 ----- CPU =     61.7088 (sec) ----------------
TotEng   =    -25169.4004 KinEng   =     21638.9646 Temp     =       301.7468 
PotEng   =    -46808.3650 E_bond   =      2634.5822 E_angle  =     11012.2379 
E_dihed  =      5260.5855 E_impro  =       225.6878 E_vdwl   =     -2314.6548 
E_coul   =    210600.5687 E_long   =   -274227.3724 Press    =      -239.5885 
Volume   =    309348.2160 
---------------- Step     3750 ----- CPU =     62.5281 (sec) ----------------
TotEng   =    -25249.6879 KinEng   =     21384.0503 Temp     =       298.1921 
PotEng   =    -46633.7382 E_bond   =      2629.0758 E_angle  =     11073.6919 
E_dihed  =      5292.8423 E_impro  =       229.9280 E_vdwl   =     -2006.9876 
E_coul   =    210369.6413 E_long   =   -274221.9300 Press    =      -315.8111 
Volume   =    309075.3089 
---------------- Step     3800 ----- CPU =     63.3616 (sec) ----------------
TotEng   =    -25277.2191 KinEng   =     21434.8820 Temp     =       298.9009 
PotEng   =    -46712.1011 E_bond   =      2676.1954 E_angle  =     10998.4816 
E_dihed  =      5196.2171 E_impro  =       249.2600 E_vdwl   =     -1987.6210 
E_coul   =    210360.7136 E_long   =   -274205.3477 Press    =      -199.3880 
Volume   =    308888.6035 
---------------- Step     3850 ----- CPU =     64.1837 (sec) ----------------
TotEng   =    -25238.1379 KinEng   =     21464.8763 Temp     =       299.3192 
PotEng   =    -46703.0143 E_bond   =      2556.1890 E_angle  =     10976.2074 
E_dihed  =      5251.9926 E_impro  =       228.1928 E_vdwl   =     -2032.1953 
E_coul   =    210535.3664 E_long   =   -274218.7672 Press    =       447.7886 
Volume   =    308845.4370 
---------------- Step     3900 ----- CPU =     65.0043 (sec) ----------------
TotEng   =    -25100.3560 KinEng   =     21356.6156 Temp     =       297.8095 
PotEng   =    -46456.9717 E_bond   =      2661.1830 E_angle  =     10979.4811 
E_dihed  =      5244.6905 E_impro  =       219.8571 E_vdwl   =     -2047.9171 
E_coul   =    210696.9976 E_long   =   -274211.2638 Press    =       157.9619 
Volume   =    308773.9000 
---------------- Step     3950 ----- CPU =     65.8277 (sec) ----------------
TotEng   =    -24880.4563 KinEng   =     21681.8951 Temp     =       302.3454 
PotEng   =    -46562.3514 E_bond   =      2565.3376 E_angle  =     11054.0778 
E_dihed  =      5282.8112 E_impro  =       223.2239 E_vdwl   =     -1925.9757 
E_coul   =    210451.5898 E_long   =   -274213.4160 Press    =       593.1606 
Volume   =    308798.3974 
---------------- Step     4000 ----- CPU =     66.6635 (sec) ----------------
TotEng   =    -24895.6405 KinEng   =     21601.2707 Temp     =       301.2212 
PotEng   =    -46496.9112 E_bond   =      2655.6252 E_angle  =     11112.9791 
E_dihed  =      5270.0562 E_impro  =       229.3823 E_vdwl   =     -1836.4598 
E_coul   =    210293.1135 E_long   =   -274221.6077 Press    =       -97.3112 
Volume   =    308990.6213 
---------------- Step     4050 ----- CPU =     67.4823 (sec) ----------------
TotEng   =    -25135.3182 KinEng   =     21582.6202 Temp     =       300.9611 
PotEng   =    -46717.9384 E_bond   =      2627.4890 E_angle  =     11086.6939 
E_dihed  =      5227.5219 E_impro  =       221.2109 E_vdwl   =     -2088.2029 
E_coul   =    210422.1328 E_long   =   -274214.7839 Press    =        33.6246 
Volume   =    309370.8305 
---------------- Step     4100 ----- CPU =     68.3156 (sec) ----------------
TotEng   =    -25418.9045 KinEng   =     21250.6732 Temp     =       296.3322 
PotEng   =    -46669.5777 E_bond   =      2572.9698 E_angle  =     10972.5243 
E_dihed  =      5195.2729 E_impro  =       226.5637 E_vdwl   =     -2013.0120 
E_coul   =    210594.4457 E_long   =   -274218.3421 Press    =       -91.6133 
Volume   =    309751.7433 
---------------- Step     4150 ----- CPU =     69.1504 (sec) ----------------
TotEng   =    -25394.4582 KinEng   =     21372.9657 Temp     =       298.0375 
PotEng   =    -46767.4239 E_bond   =      2567.3336 E_angle  =     11022.3249 
E_dihed  =      5186.6713 E_impro  =       225.4671 E_vdwl   =     -2072.6090 
E_coul   =    210500.6950 E_long   =   -274197.3068 Press    =         1.5210 
Volume   =    310007.2698 
---------------- Step     4200 ----- CPU =     69.9688 (sec) ----------------
TotEng   =    -25137.8980 KinEng   =     21502.4852 Temp     =       299.8436 
PotEng   =    -46640.3832 E_bond   =      2606.8961 E_angle  =     10939.5494 
E_dihed  =      5220.4966 E_impro  =       241.5319 E_vdwl   =     -2125.4449 
E_coul   =    210686.6429 E_long   =   -274210.0551 Press    =      -377.0564 
Volume   =    310221.7656 
---------------- Step     4250 ----- CPU =     70.8025 (sec) ----------------
TotEng   =    -24901.9241 KinEng   =     21698.9742 Temp     =       302.5836 
PotEng   =    -46600.8984 E_bond   =      2582.5351 E_angle  =     11025.3660 
E_dihed  =      5218.4255 E_impro  =       226.8322 E_vdwl   =     -2154.6442 
E_coul   =    210705.1513 E_long   =   -274204.5643 Press    =      -170.4777 
Volume   =    310269.5569 
---------------- Step     4300 ----- CPU =     71.6217 (sec) ----------------
TotEng   =    -24867.7768 KinEng   =     21678.5098 Temp     =       302.2982 
PotEng   =    -46546.2866 E_bond   =      2600.3470 E_angle  =     11107.5562 
E_dihed  =      5262.2593 E_impro  =       243.3282 E_vdwl   =     -2123.4885 
E_coul   =    210577.0951 E_long   =   -274213.3840 Press    =        14.1052 
Volume   =    310143.1222 
---------------- Step     4350 ----- CPU =     72.4560 (sec) ----------------
TotEng   =    -25075.0782 KinEng   =     21628.8419 Temp     =       301.6056 
PotEng   =    -46703.9201 E_bond   =      2564.5168 E_angle  =     11020.2474 
E_dihed  =      5289.8711 E_impro  =       240.7332 E_vdwl   =     -2174.0485 
E_coul   =    210567.8501 E_long   =   -274213.0902 Press    =      -176.4667 
Volume   =    309919.5628 
---------------- Step     4400 ----- CPU =     73.2751 (sec) ----------------
TotEng   =    -25267.3661 KinEng   =     21418.0351 Temp     =       298.6660 
PotEng   =    -46685.4013 E_bond   =      2555.6642 E_angle  =     11012.1334 
E_dihed  =      5260.0029 E_impro  =       221.1284 E_vdwl   =     -2098.9702 
E_coul   =    210581.4103 E_long   =   -274216.7703 Press    =      -195.9739 
Volume   =    309650.1957 
---------------- Step     4450 ----- CPU =     74.0949 (sec) ----------------
TotEng   =    -25158.6439 KinEng   =     21421.4015 Temp     =       298.7130 
PotEng   =    -46580.0454 E_bond   =      2576.0569 E_angle  =     11102.9486 
E_dihed  =      5264.8774 E_impro  =       219.6477 E_vdwl   =     -1923.4797 
E_coul   =    210396.1055 E_long   =   -274216.2017 Press    =       219.3874 
Volume   =    309393.8132 
---------------- Step     4500 ----- CPU =     74.9288 (sec) ----------------
TotEng   =    -24892.0818 KinEng   =     21673.9993 Temp     =       302.2353 
PotEng   =    -46566.0811 E_bond   =      2593.7040 E_angle  =     11096.1421 
E_dihed  =      5258.5938 E_impro  =       234.7818 E_vdwl   =     -2015.1275 
E_coul   =    210484.1987 E_long   =   -274218.3740 Press    =       454.0062 
Volume   =    309309.6540 
---------------- Step     4550 ----- CPU =     75.7361 (sec) ----------------
TotEng   =    -24843.0655 KinEng   =     21605.5299 Temp     =       301.2806 
PotEng   =    -46448.5954 E_bond   =      2637.9969 E_angle  =     11161.8632 
E_dihed  =      5260.8052 E_impro  =       216.5640 E_vdwl   =     -2165.8980 
E_coul   =    210653.7598 E_long   =   -274213.6867 Press    =      -308.0671 
Volume   =    309516.2120 
---------------- Step     4600 ----- CPU =     76.5546 (sec) ----------------
TotEng   =    -24922.2552 KinEng   =     21494.0287 Temp     =       299.7257 
PotEng   =    -46416.2839 E_bond   =      2608.4095 E_angle  =     10990.5722 
E_dihed  =      5295.0037 E_impro  =       237.8018 E_vdwl   =     -2102.7096 
E_coul   =    210771.4595 E_long   =   -274216.8210 Press    =      -489.7320 
Volume   =    309671.8317 
---------------- Step     4650 ----- CPU =     77.3856 (sec) ----------------
TotEng   =    -25079.3571 KinEng   =     21512.0223 Temp     =       299.9766 
PotEng   =    -46591.3794 E_bond   =      2603.5301 E_angle  =     11096.1527 
E_dihed  =      5242.5345 E_impro  =       250.5420 E_vdwl   =     -2169.8386 
E_coul   =    210599.0304 E_long   =   -274213.3305 Press    =        85.3263 
Volume   =    309787.9273 
---------------- Step     4700 ----- CPU =     78.2025 (sec) ----------------
TotEng   =    -25183.6325 KinEng   =     21451.9662 Temp     =       299.1392 
PotEng   =    -46635.5987 E_bond   =      2544.7957 E_angle  =     11019.5921 
E_dihed  =      5243.2922 E_impro  =       218.5507 E_vdwl   =     -2201.9312 
E_coul   =    210755.0198 E_long   =   -274214.9180 Press    =        62.3472 
Volume   =    309795.8181 
---------------- Step     4750 ----- CPU =     79.0343 (sec) ----------------
TotEng   =    -25229.9353 KinEng   =     21395.3570 Temp     =       298.3498 
PotEng   =    -46625.2922 E_bond   =      2521.2707 E_angle  =     11128.2211 
E_dihed  =      5273.0722 E_impro  =       236.7549 E_vdwl   =     -2118.6873 
E_coul   =    210545.0999 E_long   =   -274211.0238 Press    =        75.1524 
Volume   =    309671.4479 
---------------- Step     4800 ----- CPU =     79.8516 (sec) ----------------
TotEng   =    -25101.6435 KinEng   =     21639.8536 Temp     =       301.7592 
PotEng   =    -46741.4971 E_bond   =      2544.5482 E_angle  =     11075.8750 
E_dihed  =      5248.4468 E_impro  =       224.1862 E_vdwl   =     -2201.9876 
E_coul   =    210592.0172 E_long   =   -274224.5828 Press    =      -110.1179 
Volume   =    309545.1545 
---------------- Step     4850 ----- CPU =     80.6843 (sec) ----------------
TotEng   =    -24952.3410 KinEng   =     21589.7204 Temp     =       301.0601 
PotEng   =    -46542.0614 E_bond   =      2609.6038 E_angle  =     11094.1457 
E_dihed  =      5287.1653 E_impro  =       223.8972 E_vdwl   =     -2086.2595 
E_coul   =    210537.2724 E_long   =   -274207.8863 Press    =        41.0212 
Volume   =    309430.5593 
---------------- Step     4900 ----- CPU =     81.5062 (sec) ----------------
TotEng   =    -25011.5442 KinEng   =     21579.1729 Temp     =       300.9130 
PotEng   =    -46590.7171 E_bond   =      2582.3549 E_angle  =     11105.6995 
E_dihed  =      5312.2904 E_impro  =       232.6368 E_vdwl   =     -1997.4520 
E_coul   =    210363.0484 E_long   =   -274189.2950 Press    =        82.7606 
Volume   =    309322.9588 
---------------- Step     4950 ----- CPU =     82.3428 (sec) ----------------
TotEng   =    -25198.9554 KinEng   =     21594.0669 Temp     =       301.1207 
PotEng   =    -46793.0222 E_bond   =      2525.9461 E_angle  =     10952.1138 
E_dihed  =      5251.2597 E_impro  =       233.1511 E_vdwl   =     -2111.9562 
E_coul   =    210567.6086 E_long   =   -274211.1454 Press    =        -5.4937 
Volume   =    309086.3991 
---------------- Step     5000 ----- CPU =     83.1657 (sec) ----------------
TotEng   =    -25438.7323 KinEng   =     21401.2004 Temp     =       298.4313 
PotEng   =    -46839.9328 E_bond   =      2547.5487 E_angle  =     11057.3737 
E_dihed  =      5283.6716 E_impro  =       215.4847 E_vdwl   =     -2066.6416 
E_coul   =    210325.0789 E_long   =   -274202.4487 Press    =      -178.0670 
Volume   =    308786.7333 
---------------- Step     5050 ----- CPU =     84.0040 (sec) ----------------
TotEng   =    -25587.9546 KinEng   =     21254.8054 Temp     =       296.3898 
PotEng   =    -46842.7600 E_bond   =      2576.7536 E_angle  =     11013.6923 
E_dihed  =      5225.2252 E_impro  =       228.5480 E_vdwl   =     -1972.0007 
E_coul   =    210295.5425 E_long   =   -274210.5209 Press    =       310.6487 
Volume   =    308495.9256 
---------------- Step     5100 ----- CPU =     84.8289 (sec) ----------------
TotEng   =    -25481.5909 KinEng   =     21417.6101 Temp     =       298.6601 
PotEng   =    -46899.2010 E_bond   =      2624.2168 E_angle  =     10920.2079 
E_dihed  =      5222.0676 E_impro  =       225.5361 E_vdwl   =     -1859.5026 
E_coul   =    210185.1186 E_long   =   -274216.8454 Press    =       347.6572 
Volume   =    308409.8984 
---------------- Step     5150 ----- CPU =     85.6540 (sec) ----------------
TotEng   =    -25331.1910 KinEng   =     21533.0622 Temp     =       300.2700 
PotEng   =    -46864.2531 E_bond   =      2621.6249 E_angle  =     11056.8217 
E_dihed  =      5205.2275 E_impro  =       218.4465 E_vdwl   =     -1788.1865 
E_coul   =    210030.5474 E_long   =   -274208.7347 Press    =       151.8321 
Volume   =    308565.8272 
---------------- Step     5200 ----- CPU =     86.4801 (sec) ----------------
TotEng   =    -25208.5219 KinEng   =     21576.4473 Temp     =       300.8750 
PotEng   =    -46784.9692 E_bond   =      2634.7733 E_angle  =     10987.8112 
E_dihed  =      5226.5606 E_impro  =       224.2908 E_vdwl   =     -1955.3543 
E_coul   =    210317.2507 E_long   =   -274220.3014 Press    =        62.4343 
Volume   =    308763.2500 
---------------- Step     5250 ----- CPU =     87.3229 (sec) ----------------
TotEng   =    -25074.8992 KinEng   =     21607.5905 Temp     =       301.3093 
PotEng   =    -46682.4896 E_bond   =      2528.7553 E_angle  =     11145.9257 
E_dihed  =      5200.7934 E_impro  =       238.3217 E_vdwl   =     -1977.6572 
E_coul   =    210387.7027 E_long   =   -274206.3312 Press    =       241.9704 
Volume   =    309014.0488 
---------------- Step     5300 ----- CPU =     88.1483 (sec) ----------------
TotEng   =    -25118.4369 KinEng   =     21573.4578 Temp     =       300.8333 
PotEng   =    -46691.8947 E_bond   =      2627.2665 E_angle  =     11050.0207 
E_dihed  =      5228.6001 E_impro  =       235.8761 E_vdwl   =     -1914.0268 
E_coul   =    210296.5513 E_long   =   -274216.1826 Press    =      -326.4794 
Volume   =    309267.0145 
---------------- Step     5350 ----- CPU =     88.9866 (sec) ----------------
TotEng   =    -25280.0475 KinEng   =     21400.4608 Temp     =       298.4209 
PotEng   =    -46680.5083 E_bond   =      2622.8725 E_angle  =     11082.3834 
E_dihed  =      5266.6636 E_impro  =       219.8614 E_vdwl   =     -1991.5639 
E_coul   =    210323.8114 E_long   =   -274204.5368 Press    =      -149.0462 
Volume   =    309368.4264 
---------------- Step     5400 ----- CPU =     89.8083 (sec) ----------------
TotEng   =    -25392.5550 KinEng   =     21346.8087 Temp     =       297.6728 
PotEng   =    -46739.3637 E_bond   =      2609.9967 E_angle  =     10910.8128 
E_dihed  =      5175.5279 E_impro  =       230.2815 E_vdwl   =     -1872.3403 
E_coul   =    210425.6447 E_long   =   -274219.2871 Press    =      -283.0895 
Volume   =    309396.9080 
---------------- Step     5450 ----- CPU =     90.6446 (sec) ----------------
TotEng   =    -25282.5649 KinEng   =     21403.7143 Temp     =       298.4663 
PotEng   =    -46686.2792 E_bond   =      2618.1352 E_angle  =     10990.6929 
E_dihed  =      5244.5809 E_impro  =       227.5169 E_vdwl   =     -1904.1553 
E_coul   =    210344.1145 E_long   =   -274207.1644 Press    =       234.1932 
Volume   =    309405.3616 
---------------- Step     5500 ----- CPU =     91.4674 (sec) ----------------
TotEng   =    -25043.0964 KinEng   =     21621.6402 Temp     =       301.5052 
PotEng   =    -46664.7366 E_bond   =      2604.1399 E_angle  =     11115.7549 
E_dihed  =      5224.3864 E_impro  =       237.5056 E_vdwl   =     -2037.7557 
E_coul   =    210396.4637 E_long   =   -274205.2315 Press    =      -169.5121 
Volume   =    309283.8844 
---------------- Step     5550 ----- CPU =     92.2903 (sec) ----------------
TotEng   =    -24909.9221 KinEng   =     21571.2055 Temp     =       300.8019 
PotEng   =    -46481.1276 E_bond   =      2626.3110 E_angle  =     11113.0233 
E_dihed  =      5239.9280 E_impro  =       232.4011 E_vdwl   =     -2118.2817 
E_coul   =    210635.7639 E_long   =   -274210.2733 Press    =       -45.2559 
Volume   =    309082.4025 
---------------- Step     5600 ----- CPU =     93.1139 (sec) ----------------
TotEng   =    -25012.3754 KinEng   =     21823.2707 Temp     =       304.3169 
PotEng   =    -46835.6461 E_bond   =      2661.7569 E_angle  =     10887.4633 
E_dihed  =      5266.5352 E_impro  =       255.7968 E_vdwl   =     -2068.7198 
E_coul   =    210365.5705 E_long   =   -274204.0490 Press    =       107.9586 
Volume   =    308763.7368 
---------------- Step     5650 ----- CPU =     93.9519 (sec) ----------------
TotEng   =    -25287.9956 KinEng   =     21389.3858 Temp     =       298.2665 
PotEng   =    -46677.3814 E_bond   =      2656.4579 E_angle  =     11022.6120 
E_dihed  =      5237.6772 E_impro  =       245.3458 E_vdwl   =     -2230.5430 
E_coul   =    210607.2999 E_long   =   -274216.2313 Press    =        -3.6261 
Volume   =    308441.7220 
---------------- Step     5700 ----- CPU =     94.7756 (sec) ----------------
TotEng   =    -25485.1982 KinEng   =     21404.6779 Temp     =       298.4798 
PotEng   =    -46889.8761 E_bond   =      2558.5247 E_angle  =     11029.2510 
E_dihed  =      5236.2737 E_impro  =       235.1914 E_vdwl   =     -2088.7104 
E_coul   =    210362.6021 E_long   =   -274223.0086 Press    =       293.2280 
Volume   =    308111.9814 
---------------- Step     5750 ----- CPU =     95.6003 (sec) ----------------
TotEng   =    -25489.8766 KinEng   =     21491.8245 Temp     =       299.6950 
PotEng   =    -46981.7010 E_bond   =      2597.2202 E_angle  =     10965.3374 
E_dihed  =      5200.1664 E_impro  =       218.9706 E_vdwl   =     -1922.9801 
E_coul   =    210192.6451 E_long   =   -274233.0607 Press    =       129.5713 
Volume   =    307853.7832 
---------------- Step     5800 ----- CPU =     96.4243 (sec) ----------------
TotEng   =    -25365.4332 KinEng   =     21448.2806 Temp     =       299.0878 
PotEng   =    -46813.7138 E_bond   =      2642.6989 E_angle  =     11063.7939 
E_dihed  =      5222.3673 E_impro  =       234.1419 E_vdwl   =     -2022.6403 
E_coul   =    210270.4713 E_long   =   -274224.5468 Press    =      -336.8100 
Volume   =    307864.8955 
---------------- Step     5850 ----- CPU =     97.2472 (sec) ----------------
TotEng   =    -25287.8686 KinEng   =     21554.8637 Temp     =       300.5740 
PotEng   =    -46842.7323 E_bond   =      2648.4482 E_angle  =     11035.9389 
E_dihed  =      5263.8399 E_impro  =       233.9134 E_vdwl   =     -1923.7839 
E_coul   =    210120.5717 E_long   =   -274221.6604 Press    =       375.1858 
Volume   =    307895.6447 
---------------- Step     5900 ----- CPU =     98.0847 (sec) ----------------
TotEng   =    -25333.9205 KinEng   =     21668.4549 Temp     =       302.1580 
PotEng   =    -47002.3754 E_bond   =      2544.6883 E_angle  =     11068.4042 
E_dihed  =      5222.4038 E_impro  =       227.1430 E_vdwl   =     -1994.4368 
E_coul   =    210159.7982 E_long   =   -274230.3761 Press    =       435.5922 
Volume   =    307905.6458 
---------------- Step     5950 ----- CPU =     98.9059 (sec) ----------------
TotEng   =    -25432.0308 KinEng   =     21413.4071 Temp     =       298.6015 
PotEng   =    -46845.4378 E_bond   =      2551.6266 E_angle  =     10958.4358 
E_dihed  =      5226.0137 E_impro  =       237.2432 E_vdwl   =     -2154.6546 
E_coul   =    210550.9857 E_long   =   -274215.0883 Press    =      -225.7085 
Volume   =    308031.9518 
---------------- Step     6000 ----- CPU =     99.7426 (sec) ----------------
TotEng   =    -25344.9263 KinEng   =     21498.4656 Temp     =       299.7876 
PotEng   =    -46843.3919 E_bond   =      2557.8746 E_angle  =     11037.2017 
E_dihed  =      5254.6858 E_impro  =       226.3995 E_vdwl   =     -2109.8572 
E_coul   =    210414.7927 E_long   =   -274224.4891 Press    =       194.6511 
Volume   =    308183.0085 
---------------- Step     6050 ----- CPU =    100.5644 (sec) ----------------
TotEng   =    -25213.7364 KinEng   =     21576.6734 Temp     =       300.8782 
PotEng   =    -46790.4097 E_bond   =      2635.0359 E_angle  =     11023.6954 
E_dihed  =      5225.7662 E_impro  =       252.4123 E_vdwl   =     -1873.6298 
E_coul   =    210162.0237 E_long   =   -274215.7134 Press    =        12.9015 
Volume   =    308439.5480 
---------------- Step     6100 ----- CPU =    101.3847 (sec) ----------------
TotEng   =    -25242.2864 KinEng   =     21495.3306 Temp     =       299.7439 
PotEng   =    -46737.6171 E_bond   =      2672.9818 E_angle  =     11048.1294 
E_dihed  =      5172.8208 E_impro  =       238.9624 E_vdwl   =     -2024.1002 
E_coul   =    210349.5838 E_long   =   -274195.9951 Press    =      -318.1346 
Volume   =    308768.3031 
---------------- Step     6150 ----- CPU =    102.2178 (sec) ----------------
TotEng   =    -25288.3701 KinEng   =     21399.9826 Temp     =       298.4143 
PotEng   =    -46688.3527 E_bond   =      2613.4980 E_angle  =     10986.0961 
E_dihed  =      5305.6635 E_impro  =       216.2156 E_vdwl   =     -2213.5789 
E_coul   =    210615.9990 E_long   =   -274212.2461 Press    =      -195.8539 
Volume   =    309131.7905 
---------------- Step     6200 ----- CPU =    103.0358 (sec) ----------------
TotEng   =    -25214.7604 KinEng   =     21436.0897 Temp     =       298.9178 
PotEng   =    -46650.8502 E_bond   =      2636.3117 E_angle  =     11127.9493 
E_dihed  =      5244.2593 E_impro  =       247.9693 E_vdwl   =     -2084.5997 
E_coul   =    210393.9924 E_long   =   -274216.7323 Press    =      -136.7241 
Volume   =    309306.9962 
---------------- Step     6250 ----- CPU =    103.8545 (sec) ----------------
TotEng   =    -25094.3516 KinEng   =     21469.1922 Temp     =       299.3794 
PotEng   =    -46563.5437 E_bond   =      2638.1194 E_angle  =     11001.8628 
E_dihed  =      5277.0942 E_impro  =       227.8687 E_vdwl   =     -1947.3724 
E_coul   =    210454.4011 E_long   =   -274215.5175 Press    =        30.0928 
Volume   =    309519.3886 
---------------- Step     6300 ----- CPU =    104.6721 (sec) ----------------
TotEng   =    -25010.0446 KinEng   =     21641.1360 Temp     =       301.7771 
PotEng   =    -46651.1806 E_bond   =      2594.6927 E_angle  =     11027.4366 
E_dihed  =      5316.1100 E_impro  =       247.4841 E_vdwl   =     -2183.0749 
E_coul   =    210557.7138 E_long   =   -274211.5429 Press    =      -368.7154 
Volume   =    309738.0398 
---------------- Step     6350 ----- CPU =    105.5045 (sec) ----------------
TotEng   =    -25061.2232 KinEng   =     21668.9125 Temp     =       302.1644 
PotEng   =    -46730.1357 E_bond   =      2606.7942 E_angle  =     11046.5153 
E_dihed  =      5262.3970 E_impro  =       230.4787 E_vdwl   =     -2074.7782 
E_coul   =    210406.5617 E_long   =   -274208.1044 Press    =      -321.5259 
Volume   =    309751.9334 
---------------- Step     6400 ----- CPU =    106.3378 (sec) ----------------
TotEng   =    -25205.2242 KinEng   =     21533.7107 Temp     =       300.2791 
PotEng   =    -46738.9350 E_bond   =      2563.9196 E_angle  =     11078.4755 
E_dihed  =      5239.9926 E_impro  =       247.0229 E_vdwl   =     -2060.6799 
E_coul   =    210399.1184 E_long   =   -274206.7841 Press    =      -241.0350 
Volume   =    309600.5793 
---------------- Step     6450 ----- CPU =    107.1577 (sec) ----------------
TotEng   =    -25359.7945 KinEng   =     21360.8066 Temp     =       297.8680 
PotEng   =    -46720.6011 E_bond   =      2578.7305 E_angle  =     11091.4861 
E_dihed  =      5291.6530 E_impro  =       215.2051 E_vdwl   =     -2084.2625 
E_coul   =    210386.1507 E_long   =   -274199.5641 Press    =      -399.5509 
Volume   =    309426.1950 
---------------- Step     6500 ----- CPU =    107.9780 (sec) ----------------
TotEng   =    -25396.7629 KinEng   =     21464.3067 Temp     =       299.3113 
PotEng   =    -46861.0696 E_bond   =      2601.1997 E_angle  =     10899.2734 
E_dihed  =      5288.4031 E_impro  =       241.0237 E_vdwl   =     -1924.8715 
E_coul   =    210260.4279 E_long   =   -274226.5259 Press    =       130.6723 
Volume   =    309366.6917 
---------------- Step     6550 ----- CPU =    108.7989 (sec) ----------------
TotEng   =    -25268.7519 KinEng   =     21607.4053 Temp     =       301.3067 
PotEng   =    -46876.1572 E_bond   =      2630.9089 E_angle  =     11002.0159 
E_dihed  =      5243.4679 E_impro  =       228.4468 E_vdwl   =     -1965.4040 
E_coul   =    210200.8366 E_long   =   -274216.4293 Press    =        42.4125 
Volume   =    309417.7606 
---------------- Step     6600 ----- CPU =    109.6351 (sec) ----------------
TotEng   =    -25092.1243 KinEng   =     21572.0992 Temp     =       300.8144 
PotEng   =    -46664.2234 E_bond   =      2595.5714 E_angle  =     11108.5065 
E_dihed  =      5250.1524 E_impro  =       231.9193 E_vdwl   =     -2144.6563 
E_coul   =    210513.8710 E_long   =   -274219.5877 Press    =      -127.9966 
Volume   =    309518.4895 
---------------- Step     6650 ----- CPU =    110.4538 (sec) ----------------
TotEng   =    -25069.0983 KinEng   =     21505.5981 Temp     =       299.8870 
PotEng   =    -46574.6964 E_bond   =      2711.7022 E_angle  =     11059.1333 
E_dihed  =      5269.7539 E_impro  =       234.8476 E_vdwl   =     -2078.7392 
E_coul   =    210456.2710 E_long   =   -274227.6652 Press    =      -141.9094 
Volume   =    309551.0610 
---------------- Step     6700 ----- CPU =    111.2730 (sec) ----------------
TotEng   =    -25235.3648 KinEng   =     21374.4985 Temp     =       298.0589 
PotEng   =    -46609.8632 E_bond   =      2606.0813 E_angle  =     11173.1680 
E_dihed  =      5252.1459 E_impro  =       225.6642 E_vdwl   =     -2139.8921 
E_coul   =    210480.3943 E_long   =   -274207.4249 Press    =      -322.6992 
Volume   =    309542.0830 
---------------- Step     6750 ----- CPU =    112.0918 (sec) ----------------
TotEng   =    -25380.1314 KinEng   =     21550.3567 Temp     =       300.5112 
PotEng   =    -46930.4880 E_bond   =      2544.2450 E_angle  =     10902.4101 
E_dihed  =      5267.3630 E_impro  =       232.8682 E_vdwl   =     -2126.8443 
E_coul   =    210473.5339 E_long   =   -274224.0641 Press    =      -264.7583 
Volume   =    309358.9207 
---------------- Step     6800 ----- CPU =    112.9250 (sec) ----------------
TotEng   =    -25399.9090 KinEng   =     21455.3513 Temp     =       299.1864 
PotEng   =    -46855.2603 E_bond   =      2556.6609 E_angle  =     11076.0338 
E_dihed  =      5245.3055 E_impro  =       216.1938 E_vdwl   =     -2161.7103 
E_coul   =    210425.3313 E_long   =   -274213.0753 Press    =      -131.9742 
Volume   =    309069.7962 
---------------- Step     6850 ----- CPU =    113.7434 (sec) ----------------
TotEng   =    -25242.2928 KinEng   =     21563.7231 Temp     =       300.6976 
PotEng   =    -46806.0159 E_bond   =      2624.8666 E_angle  =     10968.5385 
E_dihed  =      5218.6489 E_impro  =       221.9903 E_vdwl   =     -1820.4677 
E_coul   =    210196.4855 E_long   =   -274216.0780 Press    =      -112.1086 
Volume   =    308773.8359 
---------------- Step     6900 ----- CPU =    114.5798 (sec) ----------------
TotEng   =    -25122.4497 KinEng   =     21688.9188 Temp     =       302.4434 
PotEng   =    -46811.3685 E_bond   =      2591.6349 E_angle  =     11027.3557 
E_dihed  =      5265.2313 E_impro  =       211.1605 E_vdwl   =     -2066.7827 
E_coul   =    210372.3596 E_long   =   -274212.3278 Press    =        89.6046 
Volume   =    308488.3822 
---------------- Step     6950 ----- CPU =    115.3997 (sec) ----------------
TotEng   =    -25182.4487 KinEng   =     21596.3042 Temp     =       301.1519 
PotEng   =    -46778.7528 E_bond   =      2543.9090 E_angle  =     11039.3430 
E_dihed  =      5234.1364 E_impro  =       235.1481 E_vdwl   =     -2128.5409 
E_coul   =    210504.8039 E_long   =   -274207.5523 Press    =       -40.0546 
Volume   =    308269.8227 
---------------- Step     7000 ----- CPU =    116.2203 (sec) ----------------
TotEng   =    -25323.3020 KinEng   =     21345.0383 Temp     =       297.6481 
PotEng   =    -46668.3402 E_bond   =      2665.8776 E_angle  =     11059.9901 
E_dihed  =      5248.6330 E_impro  =       227.0723 E_vdwl   =     -2095.0588 
E_coul   =    210420.1207 E_long   =   -274194.9752 Press    =      -438.3152 
Volume   =    308200.3087 
---------------- Step     7050 ----- CPU =    117.0385 (sec) ----------------
TotEng   =    -25406.9144 KinEng   =     21384.3670 Temp     =       298.1965 
PotEng   =    -46791.2815 E_bond   =      2576.7810 E_angle  =     10970.9047 
E_dihed  =      5285.9124 E_impro  =       227.1620 E_vdwl   =     -2158.1714 
E_coul   =    210513.2129 E_long   =   -274207.0830 Press    =       -47.8664 
Volume   =    308185.8416 
---------------- Step     7100 ----- CPU =    117.8576 (sec) ----------------
TotEng   =    -25334.2251 KinEng   =     21366.0504 Temp     =       297.9411 
PotEng   =    -46700.2755 E_bond   =      2609.8456 E_angle  =     11049.3110 
E_dihed  =      5257.8730 E_impro  =       233.5921 E_vdwl   =     -2170.6378 
E_coul   =    210532.7607 E_long   =   -274213.0201 Press    =       126.3701 
Volume   =    308080.9706 
---------------- Step     7150 ----- CPU =    118.6933 (sec) ----------------
TotEng   =    -25259.3687 KinEng   =     21606.5546 Temp     =       301.2948 
PotEng   =    -46865.9233 E_bond   =      2599.5435 E_angle  =     11081.6264 
E_dihed  =      5232.9249 E_impro  =       235.5443 E_vdwl   =     -2006.0119 
E_coul   =    210196.6041 E_long   =   -274206.1548 Press    =       104.6011 
Volume   =    307965.4873 
---------------- Step     7200 ----- CPU =    119.5289 (sec) ----------------
TotEng   =    -25252.6140 KinEng   =     21698.7034 Temp     =       302.5798 
PotEng   =    -46951.3175 E_bond   =      2519.1829 E_angle  =     11037.7492 
E_dihed  =      5286.1652 E_impro  =       207.2299 E_vdwl   =     -1994.3200 
E_coul   =    210200.3994 E_long   =   -274207.7241 Press    =       113.1151 
Volume   =    307798.4924 
---------------- Step     7250 ----- CPU =    120.3513 (sec) ----------------
TotEng   =    -25315.4560 KinEng   =     21569.9199 Temp     =       300.7840 
PotEng   =    -46885.3759 E_bond   =      2599.0268 E_angle  =     11006.7358 
E_dihed  =      5272.7219 E_impro  =       234.6425 E_vdwl   =     -2146.8885 
E_coul   =    210369.7243 E_long   =   -274221.3386 Press    =      -155.6163 
Volume   =    307748.6014 
---------------- Step     7300 ----- CPU =    121.1723 (sec) ----------------
TotEng   =    -25334.4924 KinEng   =     21441.1164 Temp     =       298.9879 
PotEng   =    -46775.6089 E_bond   =      2626.7394 E_angle  =     11060.5985 
E_dihed  =      5287.9007 E_impro  =       228.2779 E_vdwl   =     -1971.0237 
E_coul   =    210203.7611 E_long   =   -274211.8628 Press    =       151.3399 
Volume   =    307689.0629 
---------------- Step     7350 ----- CPU =    121.9929 (sec) ----------------
TotEng   =    -25320.4150 KinEng   =     21435.3507 Temp     =       298.9075 
PotEng   =    -46755.7658 E_bond   =      2522.9526 E_angle  =     11134.1361 
E_dihed  =      5278.3581 E_impro  =       235.1391 E_vdwl   =     -2029.7563 
E_coul   =    210317.3392 E_long   =   -274213.9346 Press    =       141.0680 
Volume   =    307782.5386 
---------------- Step     7400 ----- CPU =    122.8267 (sec) ----------------
TotEng   =    -25262.4525 KinEng   =     21588.7583 Temp     =       301.0467 
PotEng   =    -46851.2107 E_bond   =      2630.2157 E_angle  =     10948.3141 
E_dihed  =      5289.9918 E_impro  =       228.4349 E_vdwl   =     -2181.7584 
E_coul   =    210439.1721 E_long   =   -274205.5809 Press    =       -72.7854 
Volume   =    307898.8509 
---------------- Step     7450 ----- CPU =    123.6482 (sec) ----------------
TotEng   =    -25271.1487 KinEng   =     21564.1568 Temp     =       300.7036 
PotEng   =    -46835.3055 E_bond   =      2604.0780 E_angle  =     10918.7559 
E_dihed  =      5272.1851 E_impro  =       223.1037 E_vdwl   =     -2302.4315 
E_coul   =    210647.6827 E_long   =   -274198.6795 Press    =      -485.7159 
Volume   =    307921.6587 
---------------- Step     7500 ----- CPU =    124.4730 (sec) ----------------
TotEng   =    -25214.4183 KinEng   =     21347.1144 Temp     =       297.6771 
PotEng   =    -46561.5327 E_bond   =      2536.1245 E_angle  =     11124.5677 
E_dihed  =      5315.9251 E_impro  =       231.8551 E_vdwl   =     -2194.6174 
E_coul   =    210638.2300 E_long   =   -274213.6176 Press    =      -187.2784 
Volume   =    307877.0631 
---------------- Step     7550 ----- CPU =    125.3132 (sec) ----------------
TotEng   =    -25120.3703 KinEng   =     21537.6768 Temp     =       300.3344 
PotEng   =    -46658.0470 E_bond   =      2550.5293 E_angle  =     11190.4489 
E_dihed  =      5288.4695 E_impro  =       231.6862 E_vdwl   =     -2167.6382 
E_coul   =    210439.6174 E_long   =   -274191.1601 Press    =      -125.8232 
Volume   =    307696.5149 
---------------- Step     7600 ----- CPU =    126.1385 (sec) ----------------
TotEng   =    -25156.9489 KinEng   =     21551.1524 Temp     =       300.5223 
PotEng   =    -46708.1013 E_bond   =      2525.4952 E_angle  =     11115.5881 
E_dihed  =      5230.2910 E_impro  =       214.1418 E_vdwl   =     -2053.4827 
E_coul   =    210463.4109 E_long   =   -274203.5456 Press    =       166.9313 
Volume   =    307385.2325 
---------------- Step     7650 ----- CPU =    126.9775 (sec) ----------------
TotEng   =    -25293.6828 KinEng   =     21486.7107 Temp     =       299.6237 
PotEng   =    -46780.3935 E_bond   =      2531.6436 E_angle  =     11178.0377 
E_dihed  =      5252.3721 E_impro  =       223.9496 E_vdwl   =     -2100.9017 
E_coul   =    210340.8869 E_long   =   -274206.3816 Press    =        54.7752 
Volume   =    307155.5473 
---------------- Step     7700 ----- CPU =    127.8009 (sec) ----------------
TotEng   =    -25481.2773 KinEng   =     21683.2671 Temp     =       302.3646 
PotEng   =    -47164.5443 E_bond   =      2565.1633 E_angle  =     10939.0854 
E_dihed  =      5201.8440 E_impro  =       234.2050 E_vdwl   =     -2240.2163 
E_coul   =    210352.0916 E_long   =   -274216.7174 Press    =      -191.0791 
Volume   =    307004.9646 
---------------- Step     7750 ----- CPU =    128.6262 (sec) ----------------
TotEng   =    -25568.3146 KinEng   =     21367.5893 Temp     =       297.9626 
PotEng   =    -46935.9039 E_bond   =      2576.4876 E_angle  =     11016.3275 
E_dihed  =      5247.3666 E_impro  =       221.9124 E_vdwl   =     -2136.3909 
E_coul   =    210357.2698 E_long   =   -274218.8769 Press    =       -95.4684 
Volume   =    306965.9408 
---------------- Step     7800 ----- CPU =    129.4655 (sec) ----------------
TotEng   =    -25519.3338 KinEng   =     21478.1049 Temp     =       299.5037 
PotEng   =    -46997.4387 E_bond   =      2559.8430 E_angle  =     10903.7456 
E_dihed  =      5284.8612 E_impro  =       211.1808 E_vdwl   =     -1886.1049 
E_coul   =    210136.1799 E_long   =   -274207.1444 Press    =       -12.7028 
Volume   =    306972.0152 
---------------- Step     7850 ----- CPU =    130.2894 (sec) ----------------
TotEng   =    -25244.1202 KinEng   =     21516.6910 Temp     =       300.0417 
PotEng   =    -46760.8112 E_bond   =      2567.6822 E_angle  =     11044.8223 
E_dihed  =      5227.8070 E_impro  =       220.9956 E_vdwl   =     -1948.3764 
E_coul   =    210344.8145 E_long   =   -274218.5565 Press    =       594.4357 
Volume   =    307172.5624 
---------------- Step     7900 ----- CPU =    131.1252 (sec) ----------------
TotEng   =    -24972.6153 KinEng   =     21649.8774 Temp     =       301.8990 
PotEng   =    -46622.4927 E_bond   =      2552.2132 E_angle  =     11078.7391 
E_dihed  =      5272.1263 E_impro  =       240.2205 E_vdwl   =     -2220.8971 
E_coul   =    210658.6368 E_long   =   -274203.5316 Press    =      -168.8189 
Volume   =    307466.4063 
---------------- Step     7950 ----- CPU =    131.9593 (sec) ----------------
TotEng   =    -24910.8529 KinEng   =     21576.9831 Temp     =       300.8825 
PotEng   =    -46487.8360 E_bond   =      2556.7318 E_angle  =     11098.7301 
E_dihed  =      5296.0098 E_impro  =       223.1423 E_vdwl   =     -1999.6932 
E_coul   =    210535.4512 E_long   =   -274198.2080 Press    =        84.1138 
Volume   =    307722.7828 
---------------- Step     8000 ----- CPU =    132.7787 (sec) ----------------
TotEng   =    -25097.8331 KinEng   =     21529.1082 Temp     =       300.2149 
PotEng   =    -46626.9412 E_bond   =      2575.0738 E_angle  =     11036.2621 
E_dihed  =      5294.6907 E_impro  =       223.1872 E_vdwl   =     -2206.7750 
E_coul   =    210663.0508 E_long   =   -274212.4308 Press    =      -152.3984 
Volume   =    308052.0226 
---------------- Step     8050 ----- CPU =    133.6124 (sec) ----------------
TotEng   =    -25341.1284 KinEng   =     21508.1646 Temp     =       299.9228 
PotEng   =    -46849.2930 E_bond   =      2515.2385 E_angle  =     10873.5600 
E_dihed  =      5237.8560 E_impro  =       204.7633 E_vdwl   =     -2258.4786 
E_coul   =    210781.8801 E_long   =   -274204.1123 Press    =      -204.9694 
Volume   =    308410.2503 
---------------- Step     8100 ----- CPU =    134.4313 (sec) ----------------
TotEng   =    -25338.7102 KinEng   =     21348.6095 Temp     =       297.6979 
PotEng   =    -46687.3198 E_bond   =      2591.1835 E_angle  =     11022.3766 
E_dihed  =      5222.6129 E_impro  =       210.2028 E_vdwl   =     -2225.6363 
E_coul   =    210693.0258 E_long   =   -274201.0851 Press    =      -654.5268 
Volume   =    308739.8779 
---------------- Step     8150 ----- CPU =    135.2535 (sec) ----------------
TotEng   =    -25086.8137 KinEng   =     21474.8169 Temp     =       299.4578 
PotEng   =    -46561.6306 E_bond   =      2638.6771 E_angle  =     11128.4154 
E_dihed  =      5254.1433 E_impro  =       186.5943 E_vdwl   =     -2135.1025 
E_coul   =    210575.0157 E_long   =   -274209.3737 Press    =      -603.9670 
Volume   =    308882.6908 
---------------- Step     8200 ----- CPU =    136.0860 (sec) ----------------
TotEng   =    -24950.4651 KinEng   =     21712.2366 Temp     =       302.7685 
PotEng   =    -46662.7017 E_bond   =      2545.9188 E_angle  =     11090.7234 
E_dihed  =      5278.5305 E_impro  =       222.6994 E_vdwl   =     -2064.4035 
E_coul   =    210469.4502 E_long   =   -274205.6205 Press    =        -6.7995 
Volume   =    308851.0459 
---------------- Step     8250 ----- CPU =    136.9036 (sec) ----------------
TotEng   =    -25058.4552 KinEng   =     21559.4995 Temp     =       300.6387 
PotEng   =    -46617.9547 E_bond   =      2576.5336 E_angle  =     11008.0325 
E_dihed  =      5284.7359 E_impro  =       225.7636 E_vdwl   =     -2016.5880 
E_coul   =    210495.4838 E_long   =   -274191.9160 Press    =      -105.2610 
Volume   =    308809.6968 
---------------- Step     8300 ----- CPU =    137.7212 (sec) ----------------
TotEng   =    -25312.4946 KinEng   =     21497.5755 Temp     =       299.7752 
PotEng   =    -46810.0700 E_bond   =      2536.4137 E_angle  =     11097.1895 
E_dihed  =      5245.3607 E_impro  =       214.1248 E_vdwl   =     -2231.8979 
E_coul   =    210544.0207 E_long   =   -274215.2815 Press    =      -202.8042 
Volume   =    308814.6306 
---------------- Step     8350 ----- CPU =    138.5527 (sec) ----------------
TotEng   =    -25466.3109 KinEng   =     21344.2489 Temp     =       297.6371 
PotEng   =    -46810.5598 E_bond   =      2638.5169 E_angle  =     11017.0592 
E_dihed  =      5252.4790 E_impro  =       211.5705 E_vdwl   =     -2230.3791 
E_coul   =    210505.4247 E_long   =   -274205.2310 Press    =      -639.1615 
Volume   =    308654.2219 
---------------- Step     8400 ----- CPU =    139.3850 (sec) ----------------
TotEng   =    -25367.3389 KinEng   =     21443.1808 Temp     =       299.0167 
PotEng   =    -46810.5197 E_bond   =      2505.4947 E_angle  =     10974.9398 
E_dihed  =      5287.2016 E_impro  =       220.5516 E_vdwl   =     -2008.3796 
E_coul   =    210416.7196 E_long   =   -274207.0476 Press    =       388.9240 
Volume   =    308306.6840 
---------------- Step     8450 ----- CPU =    140.2035 (sec) ----------------
TotEng   =    -25129.1249 KinEng   =     21527.0850 Temp     =       300.1867 
PotEng   =    -46656.2099 E_bond   =      2518.8019 E_angle  =     11167.8231 
E_dihed  =      5230.2119 E_impro  =       255.1052 E_vdwl   =     -2122.2648 
E_coul   =    210511.3667 E_long   =   -274217.2540 Press    =      -227.9435 
Volume   =    308109.6127 
---------------- Step     8500 ----- CPU =    141.0363 (sec) ----------------
TotEng   =    -24983.4811 KinEng   =     21561.0826 Temp     =       300.6608 
PotEng   =    -46544.5636 E_bond   =      2633.3976 E_angle  =     11111.7286 
E_dihed  =      5297.3527 E_impro  =       242.1477 E_vdwl   =     -2020.9921 
E_coul   =    210412.6466 E_long   =   -274220.8448 Press    =      -166.0004 
Volume   =    307826.5704 
---------------- Step     8550 ----- CPU =    141.8573 (sec) ----------------
TotEng   =    -25132.7560 KinEng   =     21677.1597 Temp     =       302.2794 
PotEng   =    -46809.9156 E_bond   =      2465.2484 E_angle  =     11086.2295 
E_dihed  =      5215.3104 E_impro  =       207.7956 E_vdwl   =     -2064.9414 
E_coul   =    210465.6791 E_long   =   -274185.2372 Press    =       280.8119 
Volume   =    307593.3260 
---------------- Step     8600 ----- CPU =    142.6780 (sec) ----------------
TotEng   =    -25361.4657 KinEng   =     21395.9571 Temp     =       298.3581 
PotEng   =    -46757.4227 E_bond   =      2583.3338 E_angle  =     11051.3823 
E_dihed  =      5303.5234 E_impro  =       218.0553 E_vdwl   =     -2194.3141 
E_coul   =    210475.4918 E_long   =   -274194.8952 Press    =       187.9204 
Volume   =    307499.2922 
---------------- Step     8650 ----- CPU =    143.4989 (sec) ----------------
TotEng   =    -25475.0566 KinEng   =     21430.9332 Temp     =       298.8459 
PotEng   =    -46905.9897 E_bond   =      2569.0505 E_angle  =     10955.1807 
E_dihed  =      5277.9616 E_impro  =       226.1412 E_vdwl   =     -2006.7897 
E_coul   =    210271.0757 E_long   =   -274198.6098 Press    =       297.0128 
Volume   =    307504.3009 
---------------- Step     8700 ----- CPU =    144.3186 (sec) ----------------
TotEng   =    -25364.5109 KinEng   =     21369.0330 Temp     =       297.9827 
PotEng   =    -46733.5439 E_bond   =      2603.3727 E_angle  =     10954.9618 
E_dihed  =      5242.3159 E_impro  =       232.7204 E_vdwl   =     -2070.7373 
E_coul   =    210509.7381 E_long   =   -274205.9154 Press    =       -33.8392 
Volume   =    307659.2344 
---------------- Step     8750 ----- CPU =    145.1522 (sec) ----------------
TotEng   =    -25157.9476 KinEng   =     21459.2672 Temp     =       299.2410 
PotEng   =    -46617.2148 E_bond   =      2611.3720 E_angle  =     11169.1407 
E_dihed  =      5221.5226 E_impro  =       211.6464 E_vdwl   =     -2059.8811 
E_coul   =    210427.8077 E_long   =   -274198.8232 Press    =       146.7131 
Volume   =    307771.6457 
---------------- Step     8800 ----- CPU =    145.9719 (sec) ----------------
TotEng   =    -25106.5616 KinEng   =     21682.3290 Temp     =       302.3515 
PotEng   =    -46788.8905 E_bond   =      2514.8414 E_angle  =     10921.6056 
E_dihed  =      5261.5121 E_impro  =       231.0631 E_vdwl   =     -2069.9643 
E_coul   =    210554.4029 E_long   =   -274202.3513 Press    =       101.6872 
Volume   =    307863.8228 
---------------- Step     8850 ----- CPU =    146.7918 (sec) ----------------
TotEng   =    -25255.6383 KinEng   =     21508.7051 Temp     =       299.9304 
PotEng   =    -46764.3435 E_bond   =      2583.5989 E_angle  =     10978.5084 
E_dihed  =      5192.9620 E_impro  =       213.7432 E_vdwl   =     -2126.6188 
E_coul   =    210603.5036 E_long   =   -274210.0408 Press    =       214.9330 
Volume   =    307918.7231 
---------------- Step     8900 ----- CPU =    147.6277 (sec) ----------------
TotEng   =    -25400.2122 KinEng   =     21350.0944 Temp     =       297.7186 
PotEng   =    -46750.3066 E_bond   =      2571.7888 E_angle  =     11073.0088 
E_dihed  =      5241.0660 E_impro  =       204.3315 E_vdwl   =     -2030.3185 
E_coul   =    210414.5667 E_long   =   -274224.7499 Press    =      -164.5914 
Volume   =    307994.6655 
---------------- Step     8950 ----- CPU =    148.4476 (sec) ----------------
TotEng   =    -25479.9818 KinEng   =     21511.0580 Temp     =       299.9632 
PotEng   =    -46991.0398 E_bond   =      2564.8011 E_angle  =     10949.4820 
E_dihed  =      5232.9797 E_impro  =       224.6734 E_vdwl   =     -2158.4198 
E_coul   =    210407.3520 E_long   =   -274211.9082 Press    =      -131.8881 
Volume   =    308018.1803 
---------------- Step     9000 ----- CPU =    149.2820 (sec) ----------------
TotEng   =    -25396.5776 KinEng   =     21533.7617 Temp     =       300.2798 
PotEng   =    -46930.3394 E_bond   =      2550.1707 E_angle  =     10981.7999 
E_dihed  =      5237.5152 E_impro  =       231.5113 E_vdwl   =     -2038.0520 
E_coul   =    210324.0769 E_long   =   -274217.3614 Press    =       -19.4377 
Volume   =    307927.6754 
---------------- Step     9050 ----- CPU =    150.1025 (sec) ----------------
TotEng   =    -25267.0050 KinEng   =     21563.2688 Temp     =       300.6912 
PotEng   =    -46830.2738 E_bond   =      2602.4361 E_angle  =     11013.7702 
E_dihed  =      5248.8640 E_impro  =       231.8781 E_vdwl   =     -2016.2214 
E_coul   =    210305.6213 E_long   =   -274216.6221 Press    =        75.5210 
Volume   =    307820.7028 
---------------- Step     9100 ----- CPU =    150.9271 (sec) ----------------
TotEng   =    -25246.3867 KinEng   =     21528.4094 Temp     =       300.2051 
PotEng   =    -46774.7960 E_bond   =      2556.2935 E_angle  =     11128.8894 
E_dihed  =      5233.7860 E_impro  =       233.7633 E_vdwl   =     -2066.3620 
E_coul   =    210359.8083 E_long   =   -274220.9746 Press    =        83.3303 
Volume   =    307809.2574 
---------------- Step     9150 ----- CPU =    151.7492 (sec) ----------------
TotEng   =    -25344.8269 KinEng   =     21435.0619 Temp     =       298.9034 
PotEng   =    -46779.8888 E_bond   =      2550.9708 E_angle  =     11060.0607 
E_dihed  =      5262.5605 E_impro  =       231.2340 E_vdwl   =     -1988.3322 
E_coul   =    210307.3827 E_long   =   -274203.7653 Press    =       373.0761 
Volume   =    307827.3309 
---------------- Step     9200 ----- CPU =    152.5858 (sec) ----------------
TotEng   =    -25365.0114 KinEng   =     21555.0874 Temp     =       300.5772 
PotEng   =    -46920.0988 E_bond   =      2514.7681 E_angle  =     10941.7106 
E_dihed  =      5286.0884 E_impro  =       222.3710 E_vdwl   =     -2124.5719 
E_coul   =    210447.9685 E_long   =   -274208.4337 Press    =       235.5084 
Volume   =    307899.4022 
---------------- Step     9250 ----- CPU =    153.4057 (sec) ----------------
TotEng   =    -25214.8016 KinEng   =     21531.5766 Temp     =       300.2493 
PotEng   =    -46746.3783 E_bond   =      2531.4205 E_angle  =     11230.6373 
E_dihed  =      5257.6754 E_impro  =       220.0967 E_vdwl   =     -2197.2729 
E_coul   =    210433.0654 E_long   =   -274222.0006 Press    =        35.1015 
Volume   =    308029.2311 
---------------- Step     9300 ----- CPU =    154.2253 (sec) ----------------
TotEng   =    -25095.5621 KinEng   =     21711.8304 Temp     =       302.7629 
PotEng   =    -46807.3925 E_bond   =      2583.1067 E_angle  =     11033.9755 
E_dihed  =      5188.0773 E_impro  =       230.5086 E_vdwl   =     -2033.6925 
E_coul   =    210401.3606 E_long   =   -274210.7287 Press    =       195.1574 
Volume   =    308087.0502 
---------------- Step     9350 ----- CPU =    155.0594 (sec) ----------------
TotEng   =    -25059.2890 KinEng   =     21584.2500 Temp     =       300.9838 
PotEng   =    -46643.5390 E_bond   =      2632.2573 E_angle  =     11068.8517 
E_dihed  =      5254.2026 E_impro  =       235.3908 E_vdwl   =     -2148.4581 
E_coul   =    210542.2742 E_long   =   -274228.0575 Press    =       282.7874 
Volume   =    308213.2453 
---------------- Step     9400 ----- CPU =    155.8776 (sec) ----------------
TotEng   =    -25143.7542 KinEng   =     21366.3332 Temp     =       297.9450 
PotEng   =    -46510.0873 E_bond   =      2626.5594 E_angle  =     11089.0423 
E_dihed  =      5218.3668 E_impro  =       229.0288 E_vdwl   =     -2236.3891 
E_coul   =    210767.5443 E_long   =   -274204.2399 Press    =       275.1341 
Volume   =    308238.5265 
---------------- Step     9450 ----- CPU =    156.6962 (sec) ----------------
TotEng   =    -25269.7076 KinEng   =     21562.9029 Temp     =       300.6861 
PotEng   =    -46832.6105 E_bond   =      2564.7744 E_angle  =     11015.9258 
E_dihed  =      5216.4120 E_impro  =       225.3646 E_vdwl   =     -2135.7783 
E_coul   =    210486.1423 E_long   =   -274205.4515 Press    =      -207.5050 
Volume   =    308082.4594 
---------------- Step     9500 ----- CPU =    157.5143 (sec) ----------------
TotEng   =    -25348.5442 KinEng   =     21431.3022 Temp     =       298.8510 
PotEng   =    -46779.8465 E_bond   =      2607.2845 E_angle  =     10980.1975 
E_dihed  =      5262.2347 E_impro  =       234.6879 E_vdwl   =     -2046.2795 
E_coul   =    210401.0829 E_long   =   -274219.0544 Press    =      -124.0862 
Volume   =    307803.4364 
---------------- Step     9550 ----- CPU =    158.3320 (sec) ----------------
TotEng   =    -25346.1120 KinEng   =     21512.1468 Temp     =       299.9784 
PotEng   =    -46858.2588 E_bond   =      2580.8844 E_angle  =     10914.6583 
E_dihed  =      5278.3101 E_impro  =       209.8972 E_vdwl   =     -2011.0608 
E_coul   =    210384.6236 E_long   =   -274215.5715 Press    =       125.8265 
Volume   =    307626.4473 
---------------- Step     9600 ----- CPU =    159.1653 (sec) ----------------
TotEng   =    -25216.4786 KinEng   =     21548.0365 Temp     =       300.4788 
PotEng   =    -46764.5150 E_bond   =      2574.5188 E_angle  =     11002.1055 
E_dihed  =      5293.8373 E_impro  =       237.1697 E_vdwl   =     -2004.7978 
E_coul   =    210358.9407 E_long   =   -274226.2892 Press    =       174.0858 
Volume   =    307562.4020 
---------------- Step     9650 ----- CPU =    159.9846 (sec) ----------------
TotEng   =    -25190.1835 KinEng   =     21440.5992 Temp     =       298.9807 
PotEng   =    -46630.7827 E_bond   =      2537.8782 E_angle  =     11200.9016 
E_dihed  =      5259.9829 E_impro  =       221.1949 E_vdwl   =     -1958.3497 
E_coul   =    210332.2348 E_long   =   -274224.6253 Press    =       -15.2241 
Volume   =    307670.6629 
---------------- Step     9700 ----- CPU =    160.8027 (sec) ----------------
TotEng   =    -25281.6521 KinEng   =     21526.1862 Temp     =       300.1741 
PotEng   =    -46807.8383 E_bond   =      2563.5085 E_angle  =     11056.6177 
E_dihed  =      5247.3977 E_impro  =       244.6981 E_vdwl   =     -2133.3723 
E_coul   =    210433.1111 E_long   =   -274219.7991 Press    =      -179.8636 
Volume   =    307752.9175 
---------------- Step     9750 ----- CPU =    161.6370 (sec) ----------------
TotEng   =    -25420.6177 KinEng   =     21480.6826 Temp     =       299.5396 
PotEng   =    -46901.3004 E_bond   =      2600.7288 E_angle  =     11031.7489 
E_dihed  =      5234.6722 E_impro  =       216.7835 E_vdwl   =     -2113.4934 
E_coul   =    210347.4990 E_long   =   -274219.2394 Press    =       -40.8028 
Volume   =    307663.0379 
---------------- Step     9800 ----- CPU =    162.4558 (sec) ----------------
TotEng   =    -25502.4290 KinEng   =     21286.7460 Temp     =       296.8352 
PotEng   =    -46789.1749 E_bond   =      2532.0403 E_angle  =     11140.2170 
E_dihed  =      5279.3023 E_impro  =       214.2525 E_vdwl   =     -2002.0536 
E_coul   =    210276.1520 E_long   =   -274229.0853 Press    =       344.5248 
Volume   =    307445.5219 
---------------- Step     9850 ----- CPU =    163.2896 (sec) ----------------
TotEng   =    -25404.6094 KinEng   =     21404.7669 Temp     =       298.4810 
PotEng   =    -46809.3764 E_bond   =      2607.8582 E_angle  =     11096.2542 
E_dihed  =      5249.9576 E_impro  =       219.4354 E_vdwl   =     -2324.5304 
E_coul   =    210568.7774 E_long   =   -274227.1287 Press    =      -715.3655 
Volume   =    307368.8989 
---------------- Step     9900 ----- CPU =    164.1095 (sec) ----------------
TotEng   =    -25187.4555 KinEng   =     21392.0694 Temp     =       298.3039 
PotEng   =    -46579.5249 E_bond   =      2613.0467 E_angle  =     11084.2859 
E_dihed  =      5301.0227 E_impro  =       208.8239 E_vdwl   =     -1921.1806 
E_coul   =    210346.6568 E_long   =   -274212.1804 Press    =       349.1793 
Volume   =    307238.4383 
---------------- Step     9950 ----- CPU =    164.9433 (sec) ----------------
TotEng   =    -25030.2756 KinEng   =     21587.6828 Temp     =       301.0317 
PotEng   =    -46617.9584 E_bond   =      2579.2205 E_angle  =     11133.8696 
E_dihed  =      5294.8837 E_impro  =       238.1831 E_vdwl   =     -1989.5024 
E_coul   =    210333.7822 E_long   =   -274208.3951 Press    =       246.2282 
Volume   =    307354.4971 
---------------- Step    10000 ----- CPU =    165.7770 (sec) ----------------
TotEng   =    -25080.1172 KinEng   =     21660.9319 Temp     =       302.0531 
PotEng   =    -46741.0491 E_bond   =      2534.7974 E_angle  =     11149.6810 
E_dihed  =      5275.0069 E_impro  =       215.0090 E_vdwl   =     -2121.1542 
E_coul   =    210424.4515 E_long   =   -274218.8406 Press    =       181.7079 
Volume   =    307634.9525 
Loop time of 165.777 on 4 procs for 10000 steps with 32000 atoms

Performance: 10.424 ns/day, 2.302 hours/ns, 60.322 timesteps/s
99.5% CPU use with 4 MPI tasks x 1 OpenMP threads

MPI task timing breakdown:
Section |  min time  |  avg time  |  max time  |%varavg| %total
---------------------------------------------------------------
Pair    | 108.68     | 109.72     | 111.31     |   9.9 | 66.18
Bond    | 6.2616     | 6.5159     | 6.9437     |  10.6 |  3.93
Kspace  | 18.066     | 19.686     | 20.989     |  23.8 | 11.88
Neigh   | 13.177     | 13.181     | 13.185     |   0.1 |  7.95
Comm    | 4.8169     | 4.9418     | 5.0639     |   4.9 |  2.98
Output  | 0.0095848  | 0.01042    | 0.012855   |   1.4 |  0.01
Modify  | 10.795     | 11.087     | 11.376     |   7.9 |  6.69
Other   |            | 0.6376     |            |       |  0.38

Nlocal:           8000 ave        8069 max        7937 min
Histogram: 2 0 0 0 0 0 0 0 1 1
Nghost:          22787 ave       22911 max       22726 min
Histogram: 1 2 0 0 0 0 0 0 0 1
Neighs:    3.01144e+06 ave 3.03887e+06 max 2.98555e+06 min
Histogram: 1 0 1 0 0 0 0 1 0 1

Total # of neighbors = 12045759
Ave neighs/atom = 376.42997
Ave special neighs/atom = 7.431875
Neighbor list builds = 1077
Dangerous builds = 0
Total wall time: 0:02:46
Intel(R) VTune(TM) Profiler 2022.2.0 collection completed successfully. Use the "aps --report /home/ubuntu/lammps/bench/aps_result_20220703" command to generate textual and HTML reports for the profiling session.
