LAMMPS (7 Jan 2022)
  using 1 OpenMP thread(s) per MPI task
Reading data file ...
  orthogonal box = (-27.5 -38.5 -36.3646) to (27.5 38.5 36.3615)
  2 by 2 by 2 MPI processor grid
  reading atoms ...
  32000 atoms
  reading velocities ...
  32000 velocities
  scanning bonds ...
  4 = max bonds/atom
  scanning angles ...
  8 = max angles/atom
  scanning dihedrals ...
  18 = max dihedrals/atom
  scanning impropers ...
  2 = max impropers/atom
  reading bonds ...
  27723 bonds
  reading angles ...
  40467 angles
  reading dihedrals ...
  56829 dihedrals
  reading impropers ...
  1034 impropers
Finding 1-2 1-3 1-4 neighbors ...
  special bond factors lj:    0        0        0       
  special bond factors coul:  0        0        0       
     4 = max # of 1-2 neighbors
    12 = max # of 1-3 neighbors
    24 = max # of 1-4 neighbors
    26 = max # of special neighbors
  special bonds CPU = 0.004 seconds
  read_data CPU = 0.229 seconds
Replicating atoms ...
  orthogonal box = (-27.5 -38.5 -36.3646) to (192.5 269.5 254.5398)
  2 by 2 by 2 MPI processor grid
  2048000 atoms
  1774272 bonds
  2589888 angles
  3637056 dihedrals
  66176 impropers
Finding 1-2 1-3 1-4 neighbors ...
  special bond factors lj:    0        0        0       
  special bond factors coul:  0        0        0       
     4 = max # of 1-2 neighbors
    12 = max # of 1-3 neighbors
    24 = max # of 1-4 neighbors
    26 = max # of special neighbors
  special bonds CPU = 0.217 seconds
  replicate CPU = 0.357 seconds
Finding SHAKE clusters ...
  103488 = # of size 2 clusters
  232512 = # of size 3 clusters
   47808 = # of size 4 clusters
  270912 = # of frozen angles
  find clusters CPU = 0.090 seconds
PPPM initialization ...
  using 12-bit tables for long-range coulomb (../kspace.cpp:340)
  G vector (1/distance) = 0.25045586
  grid = 90 120 120
  stencil order = 7
  estimated absolute RMS force accuracy = 0.032785255
  estimated relative force accuracy = 9.8731821e-05
  using single precision MKL FFT
  3d grid and FFT values/proc = 233428 162000
----------------------------------------------------------
Using INTEL Package without Coprocessor.
Compiler: Intel Classic C++ 20.21.5 / Intel(R) C++ g++ 9.3 mode
SIMD compiler directives: Enabled
Precision: mixed
----------------------------------------------------------
  generated 2278 of 2278 mixed pair_coeff terms from arithmetic mixing rule
Neighbor list info ...
  update every 1 steps, delay 5 steps, check yes
  max neighbors/atom: 2000, page size: 100000
  master list distance cutoff = 12
  ghost atom cutoff = 12
  binsize = 6, bins = 37 52 49
  1 neighbor lists, perpetual/occasional/extra = 1 0 0
  (1) pair lj/charmm/coul/long/intel, perpetual
      attributes: half, newton on, intel
      pair build: half/bin/newton/intel
      stencil: half/bin/3d
      bin: intel
Setting up Verlet run ...
  Unit style    : real
  Current step  : 0
  Time step     : 2
Per MPI rank memory allocation (min/avg/max) = 2685 | 2685 | 2685 Mbytes
---------------- Step        0 ----- CPU =      0.0000 (sec) ----------------
TotEng   =  -1622915.6814 KinEng   =   1372469.2022 Temp     =       299.0274 
PotEng   =  -2995384.8836 E_bond   =    162431.7410 E_angle  =    698967.9457 
E_dihed  =    333554.2808 E_impro  =     13664.8915 E_vdwl   =   -147703.2770 
E_coul   =  13362001.3151 E_long   = -17418301.7807 Press    =      -148.3958 
Volume   =  19711682.1440 
---------------- Step       50 ----- CPU =     26.9972 (sec) ----------------
TotEng   =  -1621183.5584 KinEng   =   1376067.8242 Temp     =       299.8115 
PotEng   =  -2997251.3826 E_bond   =    158193.0241 E_angle  =    693548.5559 
E_dihed  =    335338.9263 E_impro  =     14535.9339 E_vdwl   =   -127558.7900 
E_coul   =  13347432.8660 E_long   = -17418741.8989 Press    =       238.9882 
Volume   =  19714046.0010 
---------------- Step      100 ----- CPU =     54.2901 (sec) ----------------
TotEng   =  -1618557.6617 KinEng   =   1381768.5807 Temp     =       301.0535 
PotEng   =  -3000326.2425 E_bond   =    164352.9742 E_angle  =    690067.4849 
E_dihed  =    332721.4577 E_impro  =     13872.8586 E_vdwl   =   -121547.6877 
E_coul   =  13338616.0458 E_long   = -17418409.3761 Press    =        13.8200 
Volume   =  19720671.9078 
---------------- Step      150 ----- CPU =     81.5758 (sec) ----------------
TotEng   =  -1616497.1764 KinEng   =   1378029.4481 Temp     =       300.2389 
PotEng   =  -2994526.6245 E_bond   =    163635.1686 E_angle  =    694683.6283 
E_dihed  =    336935.9242 E_impro  =     12996.8746 E_vdwl   =   -132627.5323 
E_coul   =  13347654.3362 E_long   = -17417805.0242 Press    =       245.4737 
Volume   =  19745198.5629 
---------------- Step      200 ----- CPU =    108.8272 (sec) ----------------
TotEng   =  -1605084.2144 KinEng   =   1377869.6016 Temp     =       300.2041 
PotEng   =  -2982953.8160 E_bond   =    159327.1350 E_angle  =    708809.4802 
E_dihed  =    334154.7180 E_impro  =     14881.2632 E_vdwl   =   -137566.2317 
E_coul   =  13355398.3994 E_long   = -17417958.5802 Press    =        45.4971 
Volume   =  19775932.6304 
---------------- Step      250 ----- CPU =    136.0910 (sec) ----------------
TotEng   =  -1597196.8712 KinEng   =   1381161.6851 Temp     =       300.9213 
PotEng   =  -2978358.5564 E_bond   =    162679.7705 E_angle  =    710414.8783 
E_dihed  =    335621.7069 E_impro  =     13602.0291 E_vdwl   =   -136286.9002 
E_coul   =  13354583.8390 E_long   = -17418973.8800 Press    =      -138.8493 
Volume   =  19801213.0857 
---------------- Step      300 ----- CPU =    162.8030 (sec) ----------------
TotEng   =  -1602543.2933 KinEng   =   1372884.7360 Temp     =       299.1180 
PotEng   =  -2975428.0293 E_bond   =    163838.2297 E_angle  =    698873.1878 
E_dihed  =    334180.0929 E_impro  =     14276.3706 E_vdwl   =   -143294.3026 
E_coul   =  13374166.2092 E_long   = -17417467.8171 Press    =      -414.7190 
Volume   =  19820475.4916 
---------------- Step      350 ----- CPU =    190.6766 (sec) ----------------
TotEng   =  -1612353.0730 KinEng   =   1378157.4858 Temp     =       300.2668 
PotEng   =  -2990510.5588 E_bond   =    164638.4409 E_angle  =    700457.8984 
E_dihed  =    336351.2728 E_impro  =     13328.8690 E_vdwl   =   -139984.1583 
E_coul   =  13352385.3120 E_long   = -17417688.1936 Press    =      -425.5795 
Volume   =  19828217.4983 
---------------- Step      400 ----- CPU =    217.9955 (sec) ----------------
TotEng   =  -1620814.1571 KinEng   =   1371974.2980 Temp     =       298.9196 
PotEng   =  -2992788.4550 E_bond   =    161981.7999 E_angle  =    698029.4955 
E_dihed  =    334789.7454 E_impro  =     13999.5696 E_vdwl   =   -132761.5091 
E_coul   =  13349469.7587 E_long   = -17418297.3151 Press    =       148.7698 
Volume   =  19827014.7706 
---------------- Step      450 ----- CPU =    245.8334 (sec) ----------------
TotEng   =  -1622275.0963 KinEng   =   1372716.1176 Temp     =       299.0812 
PotEng   =  -2994991.2139 E_bond   =    159562.7432 E_angle  =    696979.0947 
E_dihed  =    337137.7582 E_impro  =     14355.5082 E_vdwl   =   -135124.8823 
E_coul   =  13349647.7702 E_long   = -17417549.2061 Press    =       237.9394 
Volume   =  19824531.9299 
---------------- Step      500 ----- CPU =    273.6651 (sec) ----------------
TotEng   =  -1605686.7945 KinEng   =   1376681.2131 Temp     =       299.9451 
PotEng   =  -2982368.0076 E_bond   =    164805.2727 E_angle  =    697919.9493 
E_dihed  =    336854.6192 E_impro  =     14116.6870 E_vdwl   =   -132849.0398 
E_coul   =  13354483.3039 E_long   = -17417698.7999 Press    =      -159.7805 
Volume   =  19824445.7086 
---------------- Step      550 ----- CPU =    301.5403 (sec) ----------------
TotEng   =  -1589497.5045 KinEng   =   1387601.0186 Temp     =       302.3243 
PotEng   =  -2977098.5231 E_bond   =    162585.3564 E_angle  =    701361.6406 
E_dihed  =    333267.3529 E_impro  =     14823.6735 E_vdwl   =   -128414.5902 
E_coul   =  13357216.9004 E_long   = -17417938.8567 Press    =       414.9548 
Volume   =  19831264.5799 
---------------- Step      600 ----- CPU =    329.4085 (sec) ----------------
TotEng   =  -1589351.3117 KinEng   =   1387980.5492 Temp     =       302.4070 
PotEng   =  -2977331.8609 E_bond   =    163396.9469 E_angle  =    704223.0806 
E_dihed  =    336196.6407 E_impro  =     14133.3647 E_vdwl   =   -140050.0090 
E_coul   =  13362730.6864 E_long   = -17417962.5712 Press    =        27.6758 
Volume   =  19848592.4196 
---------------- Step      650 ----- CPU =    357.2644 (sec) ----------------
TotEng   =  -1603620.5630 KinEng   =   1379697.6821 Temp     =       300.6023 
PotEng   =  -2983318.2452 E_bond   =    162126.6686 E_angle  =    692972.4845 
E_dihed  =    335927.1904 E_impro  =     13752.4392 E_vdwl   =   -137982.8148 
E_coul   =  13367904.5962 E_long   = -17418018.8093 Press    =      -144.8969 
Volume   =  19861373.9654 
---------------- Step      700 ----- CPU =    384.5658 (sec) ----------------
TotEng   =  -1612963.1912 KinEng   =   1374579.8054 Temp     =       299.4873 
PotEng   =  -2987542.9966 E_bond   =    159863.9234 E_angle  =    699243.0198 
E_dihed  =    335458.4399 E_impro  =     13831.8426 E_vdwl   =   -140595.5161 
E_coul   =  13362634.3099 E_long   = -17417979.0162 Press    =        82.3548 
Volume   =  19870452.6899 
---------------- Step      750 ----- CPU =    412.4056 (sec) ----------------
TotEng   =  -1612772.2205 KinEng   =   1369955.9995 Temp     =       298.4799 
PotEng   =  -2982728.2200 E_bond   =    163173.0639 E_angle  =    704170.1643 
E_dihed  =    336941.4348 E_impro  =     13601.0180 E_vdwl   =   -135801.2121 
E_coul   =  13353419.6676 E_long   = -17418232.3565 Press    =       128.4138 
Volume   =  19873072.6922 
---------------- Step      800 ----- CPU =    439.6732 (sec) ----------------
TotEng   =  -1607657.0914 KinEng   =   1375610.6905 Temp     =       299.7119 
PotEng   =  -2983267.7819 E_bond   =    161461.7411 E_angle  =    703314.7488 
E_dihed  =    338051.9581 E_impro  =     14080.8943 E_vdwl   =   -133000.9629 
E_coul   =  13350484.2724 E_long   = -17417660.4336 Press    =        54.9184 
Volume   =  19870323.1987 
---------------- Step      850 ----- CPU =    467.5169 (sec) ----------------
TotEng   =  -1599331.1546 KinEng   =   1378516.5181 Temp     =       300.3450 
PotEng   =  -2977847.6727 E_bond   =    162768.1708 E_angle  =    702862.2424 
E_dihed  =    337435.9281 E_impro  =     14120.0620 E_vdwl   =   -131121.7896 
E_coul   =  13353872.8967 E_long   = -17417785.1831 Press    =        81.9567 
Volume   =  19863821.2193 
---------------- Step      900 ----- CPU =    495.3676 (sec) ----------------
TotEng   =  -1594469.2931 KinEng   =   1379711.5636 Temp     =       300.6054 
PotEng   =  -2974180.8568 E_bond   =    161990.8960 E_angle  =    703831.0768 
E_dihed  =    338533.1461 E_impro  =     15074.8979 E_vdwl   =   -130946.7405 
E_coul   =  13355072.2663 E_long   = -17417736.3993 Press    =       172.8095 
Volume   =  19853747.2505 
---------------- Step      950 ----- CPU =    523.2363 (sec) ----------------
TotEng   =  -1596751.0848 KinEng   =   1378503.1202 Temp     =       300.3421 
PotEng   =  -2975254.2049 E_bond   =    163659.9726 E_angle  =    706652.7492 
E_dihed  =    337021.1292 E_impro  =     14872.0670 E_vdwl   =   -134304.8875 
E_coul   =  13354540.7306 E_long   = -17417695.9661 Press    =       -71.0833 
Volume   =  19843936.5173 
---------------- Step     1000 ----- CPU =    551.1176 (sec) ----------------
TotEng   =  -1605461.3914 KinEng   =   1376721.8191 Temp     =       299.9540 
PotEng   =  -2982183.2105 E_bond   =    163730.6517 E_angle  =    703755.4557 
E_dihed  =    336338.4203 E_impro  =     14062.7213 E_vdwl   =   -134526.1619 
E_coul   =  13352324.9560 E_long   = -17417869.2538 Press    =        39.4174 
Volume   =  19836157.9650 
---------------- Step     1050 ----- CPU =    578.4441 (sec) ----------------
TotEng   =  -1612495.3268 KinEng   =   1373205.5937 Temp     =       299.1879 
PotEng   =  -2985700.9205 E_bond   =    162482.3881 E_angle  =    702946.8638 
E_dihed  =    335685.9299 E_impro  =     14396.6955 E_vdwl   =   -134941.9994 
E_coul   =  13351682.2123 E_long   = -17417953.0108 Press    =      -177.8155 
Volume   =  19830676.8768 
---------------- Step     1100 ----- CPU =    606.3682 (sec) ----------------
TotEng   =  -1612159.2181 KinEng   =   1373149.6419 Temp     =       299.1757 
PotEng   =  -2985308.8600 E_bond   =    163169.8879 E_angle  =    703808.1793 
E_dihed  =    336197.3811 E_impro  =     14557.9983 E_vdwl   =   -135054.0635 
E_coul   =  13350226.3645 E_long   = -17418214.6076 Press    =        98.5064 
Volume   =  19823835.0585 
---------------- Step     1150 ----- CPU =    634.2906 (sec) ----------------
TotEng   =  -1606714.0585 KinEng   =   1376550.5570 Temp     =       299.9167 
PotEng   =  -2983264.6155 E_bond   =    164470.2007 E_angle  =    701826.6167 
E_dihed  =    336641.9069 E_impro  =     14160.7262 E_vdwl   =   -132650.1833 
E_coul   =  13350367.9664 E_long   = -17418081.8491 Press    =        68.1558 
Volume   =  19816063.1562 
---------------- Step     1200 ----- CPU =    661.6608 (sec) ----------------
TotEng   =  -1600896.8286 KinEng   =   1380690.1222 Temp     =       300.8186 
PotEng   =  -2981586.9508 E_bond   =    164919.2026 E_angle  =    701920.9030 
E_dihed  =    336860.4998 E_impro  =     14392.8595 E_vdwl   =   -133043.7055 
E_coul   =  13351507.9284 E_long   = -17418144.6386 Press    =        50.8967 
Volume   =  19810360.5419 
---------------- Step     1250 ----- CPU =    689.5875 (sec) ----------------
TotEng   =  -1600261.3484 KinEng   =   1379822.3325 Temp     =       300.6295 
PotEng   =  -2980083.6810 E_bond   =    164403.2548 E_angle  =    704258.8223 
E_dihed  =    336455.2963 E_impro  =     14306.8316 E_vdwl   =   -131959.5116 
E_coul   =  13350608.8926 E_long   = -17418157.2669 Press    =        51.2005 
Volume   =  19809656.0175 
---------------- Step     1300 ----- CPU =    717.5170 (sec) ----------------
TotEng   =  -1605272.7101 KinEng   =   1378290.0038 Temp     =       300.2956 
PotEng   =  -2983562.7139 E_bond   =    165323.0730 E_angle  =    702023.2977 
E_dihed  =    336998.8800 E_impro  =     14479.8020 E_vdwl   =   -136550.0972 
E_coul   =  13352411.3448 E_long   = -17418249.0141 Press    =      -157.2477 
Volume   =  19811767.0023 
---------------- Step     1350 ----- CPU =    745.4690 (sec) ----------------
TotEng   =  -1609419.2184 KinEng   =   1374176.3688 Temp     =       299.3994 
PotEng   =  -2983595.5872 E_bond   =    164129.1468 E_angle  =    702709.7304 
E_dihed  =    337080.6559 E_impro  =     14367.2121 E_vdwl   =   -134816.7722 
E_coul   =  13351057.9125 E_long   = -17418123.4727 Press    =       -29.2186 
Volume   =  19813469.0203 
---------------- Step     1400 ----- CPU =    772.8482 (sec) ----------------
TotEng   =  -1609855.6358 KinEng   =   1374736.7096 Temp     =       299.5215 
PotEng   =  -2984592.3454 E_bond   =    163979.0685 E_angle  =    703240.4242 
E_dihed  =    336989.8198 E_impro  =     14268.3612 E_vdwl   =   -133020.8306 
E_coul   =  13348119.8624 E_long   = -17418169.0509 Press    =        38.2352 
Volume   =  19815242.9706 
---------------- Step     1450 ----- CPU =    800.7696 (sec) ----------------
TotEng   =  -1606579.1456 KinEng   =   1377251.1144 Temp     =       300.0693 
PotEng   =  -2983830.2601 E_bond   =    164151.9524 E_angle  =    703591.9982 
E_dihed  =    337019.7573 E_impro  =     14306.8089 E_vdwl   =   -134613.9026 
E_coul   =  13349734.4630 E_long   = -17418021.3373 Press    =       -60.7787 
Volume   =  19815812.0268 
---------------- Step     1500 ----- CPU =    828.1229 (sec) ----------------
TotEng   =  -1603646.0848 KinEng   =   1379982.6006 Temp     =       300.6644 
PotEng   =  -2983628.6854 E_bond   =    164759.0643 E_angle  =    701532.3734 
E_dihed  =    336953.8966 E_impro  =     14448.8952 E_vdwl   =   -132686.7533 
E_coul   =  13349242.1990 E_long   = -17417878.3605 Press    =      -117.8772 
Volume   =  19815753.8550 
---------------- Step     1550 ----- CPU =    856.0186 (sec) ----------------
TotEng   =  -1603821.2805 KinEng   =   1378509.6953 Temp     =       300.3435 
PotEng   =  -2982330.9758 E_bond   =    163860.2610 E_angle  =    705203.3849 
E_dihed  =    337063.8799 E_impro  =     14494.9405 E_vdwl   =   -135055.6903 
E_coul   =  13350295.6345 E_long   = -17418193.3863 Press    =        71.8195 
Volume   =  19813809.5770 
---------------- Step     1600 ----- CPU =    883.9642 (sec) ----------------
TotEng   =  -1606653.2642 KinEng   =   1377053.6081 Temp     =       300.0263 
PotEng   =  -2983706.8723 E_bond   =    163287.3347 E_angle  =    703286.6514 
E_dihed  =    336564.0845 E_impro  =     14222.2588 E_vdwl   =   -133571.7635 
E_coul   =  13350525.2745 E_long   = -17418020.7128 Press    =        48.0905 
Volume   =  19811679.3859 
---------------- Step     1650 ----- CPU =    911.3426 (sec) ----------------
TotEng   =  -1610293.5841 KinEng   =   1375608.9078 Temp     =       299.7115 
PotEng   =  -2985902.4919 E_bond   =    164412.6911 E_angle  =    702986.2709 
E_dihed  =    336278.5145 E_impro  =     14378.9117 E_vdwl   =   -132860.6129 
E_coul   =  13347010.8798 E_long   = -17418109.1470 Press    =       -15.0485 
Volume   =  19808987.6869 
---------------- Step     1700 ----- CPU =    939.3030 (sec) ----------------
TotEng   =  -1611701.8296 KinEng   =   1375305.8926 Temp     =       299.6455 
PotEng   =  -2987007.7222 E_bond   =    163615.1112 E_angle  =    704050.4512 
E_dihed  =    336851.1297 E_impro  =     14209.5623 E_vdwl   =   -134304.6070 
E_coul   =  13346703.1869 E_long   = -17418132.5564 Press    =        50.8606 
Volume   =  19806163.4664 
---------------- Step     1750 ----- CPU =    966.6760 (sec) ----------------
TotEng   =  -1609158.9634 KinEng   =   1375917.1034 Temp     =       299.7787 
PotEng   =  -2985076.0668 E_bond   =    163456.3421 E_angle  =    704677.1731 
E_dihed  =    336447.2023 E_impro  =     14350.5849 E_vdwl   =   -133645.7944 
E_coul   =  13347898.4004 E_long   = -17418259.9751 Press    =        42.4681 
Volume   =  19803348.0726 
---------------- Step     1800 ----- CPU =    994.6147 (sec) ----------------
TotEng   =  -1604665.2637 KinEng   =   1378600.5365 Temp     =       300.3633 
PotEng   =  -2983265.8002 E_bond   =    164785.1334 E_angle  =    704637.9069 
E_dihed  =    336288.0666 E_impro  =     14539.8843 E_vdwl   =   -134322.5822 
E_coul   =  13348892.9283 E_long   = -17418087.1375 Press    =      -105.9246 
Volume   =  19801570.5057 
---------------- Step     1850 ----- CPU =   1021.9821 (sec) ----------------
TotEng   =  -1603109.5772 KinEng   =   1379071.4786 Temp     =       300.4659 
PotEng   =  -2982181.0558 E_bond   =    164559.0608 E_angle  =    704240.9348 
E_dihed  =    337242.7686 E_impro  =     14283.3327 E_vdwl   =   -132835.4259 
E_coul   =  13348535.6115 E_long   = -17418207.3383 Press    =        71.0269 
Volume   =  19800889.5740 
---------------- Step     1900 ----- CPU =   1049.9367 (sec) ----------------
TotEng   =  -1605843.3441 KinEng   =   1378119.0950 Temp     =       300.2584 
PotEng   =  -2983962.4391 E_bond   =    164492.0024 E_angle  =    705379.8422 
E_dihed  =    336871.5221 E_impro  =     14282.4694 E_vdwl   =   -134185.9716 
E_coul   =  13347392.4137 E_long   = -17418194.7173 Press    =       -44.6811 
Volume   =  19801529.3808 
---------------- Step     1950 ----- CPU =   1077.8443 (sec) ----------------
TotEng   =  -1610447.5314 KinEng   =   1374598.8363 Temp     =       299.4914 
PotEng   =  -2985046.3677 E_bond   =    164019.1974 E_angle  =    705281.0833 
E_dihed  =    336784.5449 E_impro  =     14330.1777 E_vdwl   =   -134765.8022 
E_coul   =  13347429.2875 E_long   = -17418124.8563 Press    =       -83.5871 
Volume   =  19801577.1258 
---------------- Step     2000 ----- CPU =   1105.8038 (sec) ----------------
TotEng   =  -1612704.4614 KinEng   =   1374066.9481 Temp     =       299.3755 
PotEng   =  -2986771.4095 E_bond   =    164375.4126 E_angle  =    704160.4875 
E_dihed  =    337158.7899 E_impro  =     14451.9393 E_vdwl   =   -133731.1529 
E_coul   =  13344919.9575 E_long   = -17418106.8434 Press    =       -39.2781 
Volume   =  19800449.5694 
---------------- Step     2050 ----- CPU =   1133.1662 (sec) ----------------
TotEng   =  -1610008.4090 KinEng   =   1374798.5779 Temp     =       299.5350 
PotEng   =  -2984806.9869 E_bond   =    163958.0720 E_angle  =    704338.1002 
E_dihed  =    337166.4990 E_impro  =     14361.0729 E_vdwl   =   -133370.5452 
E_coul   =  13346899.7134 E_long   = -17418159.8993 Press    =        14.7471 
Volume   =  19797914.3764 
---------------- Step     2100 ----- CPU =   1161.1110 (sec) ----------------
TotEng   =  -1605325.0385 KinEng   =   1377678.8756 Temp     =       300.1625 
PotEng   =  -2983003.9141 E_bond   =    165509.4059 E_angle  =    705433.9829 
E_dihed  =    336914.2328 E_impro  =     14396.7084 E_vdwl   =   -132659.9765 
E_coul   =  13345474.4925 E_long   = -17418072.7602 Press    =       -69.2189 
Volume   =  19795532.8851 
---------------- Step     2150 ----- CPU =   1189.0727 (sec) ----------------
TotEng   =  -1603723.8733 KinEng   =   1378285.2494 Temp     =       300.2946 
PotEng   =  -2982009.1226 E_bond   =    163786.3288 E_angle  =    706816.7240 
E_dihed  =    336517.8471 E_impro  =     14517.3041 E_vdwl   =   -133367.5702 
E_coul   =  13347770.0209 E_long   = -17418049.7774 Press    =       -36.3239 
Volume   =  19793656.5952 
---------------- Step     2200 ----- CPU =   1216.4930 (sec) ----------------
TotEng   =  -1606633.2039 KinEng   =   1377732.1995 Temp     =       300.1741 
PotEng   =  -2984365.4034 E_bond   =    164304.3227 E_angle  =    705058.2091 
E_dihed  =    336945.2451 E_impro  =     14537.3183 E_vdwl   =   -134272.6462 
E_coul   =  13347164.7540 E_long   = -17418102.6064 Press    =       -56.7985 
Volume   =  19791738.6133 
---------------- Step     2250 ----- CPU =   1244.9660 (sec) ----------------
TotEng   =  -1611107.6717 KinEng   =   1375224.6285 Temp     =       299.6278 
PotEng   =  -2986332.3003 E_bond   =    164557.6148 E_angle  =    704868.3993 
E_dihed  =    336138.4466 E_impro  =     14449.3239 E_vdwl   =   -133587.8135 
E_coul   =  13345351.5112 E_long   = -17418109.7826 Press    =        20.3538 
Volume   =  19790721.8503 
---------------- Step     2300 ----- CPU =   1272.3572 (sec) ----------------
TotEng   =  -1613030.9783 KinEng   =   1374462.1563 Temp     =       299.4617 
PotEng   =  -2987493.1346 E_bond   =    163866.8399 E_angle  =    705247.9624 
E_dihed  =    336126.8371 E_impro  =     14432.5451 E_vdwl   =   -133485.7255 
E_coul   =  13344429.3103 E_long   = -17418110.9039 Press    =        -7.9458 
Volume   =  19790650.3341 
---------------- Step     2350 ----- CPU =   1300.2866 (sec) ----------------
TotEng   =  -1611107.1799 KinEng   =   1377275.9324 Temp     =       300.0747 
PotEng   =  -2988383.1124 E_bond   =    164506.1628 E_angle  =    705214.3574 
E_dihed  =    336582.5186 E_impro  =     14493.2873 E_vdwl   =   -133569.1686 
E_coul   =  13342584.4129 E_long   = -17418194.6829 Press    =       -41.8564 
Volume   =  19791827.0467 
---------------- Step     2400 ----- CPU =   1328.2339 (sec) ----------------
TotEng   =  -1608185.0593 KinEng   =   1377477.0610 Temp     =       300.1185 
PotEng   =  -2985662.1203 E_bond   =    163902.2363 E_angle  =    705655.3540 
E_dihed  =    337555.8899 E_impro  =     14334.9830 E_vdwl   =   -133028.6348 
E_coul   =  13344020.6032 E_long   = -17418102.5520 Press    =       -36.7761 
Volume   =  19792766.4144 
---------------- Step     2450 ----- CPU =   1355.6065 (sec) ----------------
TotEng   =  -1606521.8540 KinEng   =   1377839.9349 Temp     =       300.1976 
PotEng   =  -2984361.7889 E_bond   =    164701.6066 E_angle  =    706127.9736 
E_dihed  =    337058.4427 E_impro  =     14388.3350 E_vdwl   =   -134433.1141 
E_coul   =  13345994.5166 E_long   = -17418199.5493 Press    =       -19.1788 
Volume   =  19792948.5628 
---------------- Step     2500 ----- CPU =   1384.0938 (sec) ----------------
TotEng   =  -1607302.4380 KinEng   =   1376919.3453 Temp     =       299.9970 
PotEng   =  -2984221.7833 E_bond   =    164790.9843 E_angle  =    704699.9713 
E_dihed  =    336904.1591 E_impro  =     14269.9087 E_vdwl   =   -132059.9190 
E_coul   =  13345255.8977 E_long   = -17418082.7854 Press    =       -16.6894 
Volume   =  19793481.2303 
---------------- Step     2550 ----- CPU =   1411.4479 (sec) ----------------
TotEng   =  -1609454.1090 KinEng   =   1377295.5375 Temp     =       300.0790 
PotEng   =  -2986749.6465 E_bond   =    164411.5306 E_angle  =    706202.8844 
E_dihed  =    336414.1926 E_impro  =     14371.4194 E_vdwl   =   -134723.5128 
E_coul   =  13344681.5210 E_long   = -17418107.6816 Press    =       -44.5034 
Volume   =  19794497.4513 
---------------- Step     2600 ----- CPU =   1439.3843 (sec) ----------------
TotEng   =  -1611728.0549 KinEng   =   1375479.2045 Temp     =       299.6832 
PotEng   =  -2987207.2594 E_bond   =    164480.3713 E_angle  =    704958.6120 
E_dihed  =    336452.4284 E_impro  =     14222.6304 E_vdwl   =   -134178.6709 
E_coul   =  13344998.2684 E_long   = -17418140.8989 Press    =       -61.6201 
Volume   =  19795447.6730 
---------------- Step     2650 ----- CPU =   1467.2875 (sec) ----------------
TotEng   =  -1611526.0614 KinEng   =   1376576.4054 Temp     =       299.9223 
PotEng   =  -2988102.4668 E_bond   =    164245.6034 E_angle  =    704802.4570 
E_dihed  =    336677.4679 E_impro  =     14459.7355 E_vdwl   =   -133479.7336 
E_coul   =  13343310.4642 E_long   = -17418118.4612 Press    =       -29.8536 
Volume   =  19795141.0206 
---------------- Step     2700 ----- CPU =   1494.6574 (sec) ----------------
TotEng   =  -1608825.9023 KinEng   =   1377653.3478 Temp     =       300.1569 
PotEng   =  -2986479.2501 E_bond   =    164696.4314 E_angle  =    705152.1469 
E_dihed  =    336375.3574 E_impro  =     14400.6519 E_vdwl   =   -132561.3969 
E_coul   =  13343702.5154 E_long   = -17418244.9561 Press    =        27.6490 
Volume   =  19794682.1549 
---------------- Step     2750 ----- CPU =   1522.5816 (sec) ----------------
TotEng   =  -1606626.8365 KinEng   =   1376343.2495 Temp     =       299.8715 
PotEng   =  -2982970.0861 E_bond   =    164580.5026 E_angle  =    707012.4878 
E_dihed  =    337189.3334 E_impro  =     14338.3382 E_vdwl   =   -133148.9954 
E_coul   =  13345164.7260 E_long   = -17418106.4786 Press    =       -28.3771 
Volume   =  19795171.7992 
---------------- Step     2800 ----- CPU =   1550.5473 (sec) ----------------
TotEng   =  -1607263.9610 KinEng   =   1378862.5250 Temp     =       300.4204 
PotEng   =  -2986126.4860 E_bond   =    164419.1070 E_angle  =    705888.4490 
E_dihed  =    336948.8189 E_impro  =     14297.1857 E_vdwl   =   -134923.0962 
E_coul   =  13345308.2001 E_long   = -17418065.1505 Press    =       -26.2891 
Volume   =  19795435.5067 
---------------- Step     2850 ----- CPU =   1577.9557 (sec) ----------------
TotEng   =  -1610077.4345 KinEng   =   1376444.3528 Temp     =       299.8935 
PotEng   =  -2986521.7873 E_bond   =    164623.7166 E_angle  =    704838.7524 
E_dihed  =    337137.7820 E_impro  =     14282.5010 E_vdwl   =   -132959.9073 
E_coul   =  13343619.4557 E_long   = -17418064.0877 Press    =        35.4777 
Volume   =  19793756.1721 
---------------- Step     2900 ----- CPU =   1605.9154 (sec) ----------------
TotEng   =  -1611900.0493 KinEng   =   1375594.2557 Temp     =       299.7083 
PotEng   =  -2987494.3049 E_bond   =    164378.2195 E_angle  =    705494.2079 
E_dihed  =    337005.9533 E_impro  =     14419.0827 E_vdwl   =   -132829.1303 
E_coul   =  13342189.4436 E_long   = -17418152.0816 Press    =        -7.6925 
Volume   =  19793184.1369 
---------------- Step     2950 ----- CPU =   1633.8682 (sec) ----------------
TotEng   =  -1611728.2872 KinEng   =   1375133.6008 Temp     =       299.6079 
PotEng   =  -2986861.8880 E_bond   =    164895.0669 E_angle  =    706113.4934 
E_dihed  =    336822.6426 E_impro  =     14427.6142 E_vdwl   =   -132979.8297 
E_coul   =  13342072.4622 E_long   = -17418213.3376 Press    =       -41.1149 
Volume   =  19793155.4571 
---------------- Step     3000 ----- CPU =   1661.2972 (sec) ----------------
TotEng   =  -1609745.2796 KinEng   =   1377667.7192 Temp     =       300.1601 
PotEng   =  -2987412.9987 E_bond   =    164186.0734 E_angle  =    705555.0973 
E_dihed  =    337085.3158 E_impro  =     14326.0846 E_vdwl   =   -131875.3972 
E_coul   =  13341426.4975 E_long   = -17418116.6701 Press    =        15.3784 
Volume   =  19792282.7253 
---------------- Step     3050 ----- CPU =   1689.2789 (sec) ----------------
TotEng   =  -1608209.5756 KinEng   =   1377593.2678 Temp     =       300.1438 
PotEng   =  -2985802.8434 E_bond   =    164940.0218 E_angle  =    706608.3268 
E_dihed  =    337251.4288 E_impro  =     14458.7334 E_vdwl   =   -131985.7003 
E_coul   =  13341174.1879 E_long   = -17418249.8417 Press    =       -24.8820 
Volume   =  19791695.6279 
---------------- Step     3100 ----- CPU =   1717.2405 (sec) ----------------
TotEng   =  -1608751.3495 KinEng   =   1377507.3270 Temp     =       300.1251 
PotEng   =  -2986258.6764 E_bond   =    164811.9495 E_angle  =    706624.1657 
E_dihed  =    337193.5297 E_impro  =     14290.0081 E_vdwl   =   -133206.2684 
E_coul   =  13342147.9000 E_long   = -17418119.9610 Press    =       -12.4883 
Volume   =  19790248.7805 
---------------- Step     3150 ----- CPU =   1745.2397 (sec) ----------------
TotEng   =  -1610358.9121 KinEng   =   1377626.0357 Temp     =       300.1510 
PotEng   =  -2987984.9478 E_bond   =    164952.2947 E_angle  =    706496.7391 
E_dihed  =    336923.7350 E_impro  =     14487.5571 E_vdwl   =   -132867.8334 
E_coul   =  13340223.1050 E_long   = -17418200.5452 Press    =        -1.5034 
Volume   =  19788720.1361 
---------------- Step     3200 ----- CPU =   1772.6675 (sec) ----------------
TotEng   =  -1612214.9031 KinEng   =   1377046.5824 Temp     =       300.0247 
PotEng   =  -2989261.4854 E_bond   =    164315.0425 E_angle  =    705962.5216 
E_dihed  =    336527.2093 E_impro  =     14347.9004 E_vdwl   =   -133597.4815 
E_coul   =  13341313.4004 E_long   = -17418130.0782 Press    =       -26.1223 
Volume   =  19787507.2509 
---------------- Step     3250 ----- CPU =   1800.6333 (sec) ----------------
TotEng   =  -1612898.4719 KinEng   =   1375891.8956 Temp     =       299.7732 
PotEng   =  -2988790.3675 E_bond   =    164710.4920 E_angle  =    705872.6962 
E_dihed  =    336663.8061 E_impro  =     14407.4063 E_vdwl   =   -131742.1712 
E_coul   =  13339330.9470 E_long   = -17418033.5439 Press    =        26.8413 
Volume   =  19786392.6006 
---------------- Step     3300 ----- CPU =   1828.0052 (sec) ----------------
TotEng   =  -1611965.8175 KinEng   =   1376989.5649 Temp     =       300.0123 
PotEng   =  -2988955.3824 E_bond   =    164641.0283 E_angle  =    706089.8650 
E_dihed  =    337062.1670 E_impro  =     14325.2101 E_vdwl   =   -132824.4599 
E_coul   =  13339906.3053 E_long   = -17418155.4982 Press    =       -13.3040 
Volume   =  19786812.8210 
---------------- Step     3350 ----- CPU =   1856.0124 (sec) ----------------
TotEng   =  -1609760.6955 KinEng   =   1377183.7247 Temp     =       300.0546 
PotEng   =  -2986944.4202 E_bond   =    164765.5225 E_angle  =    707267.8046 
E_dihed  =    337073.2764 E_impro  =     14480.2246 E_vdwl   =   -134021.7575 
E_coul   =  13341737.2627 E_long   = -17418246.7535 Press    =       -37.5651 
Volume   =  19787548.4452 
---------------- Step     3400 ----- CPU =   1883.3817 (sec) ----------------
TotEng   =  -1608193.1650 KinEng   =   1378245.3230 Temp     =       300.2859 
PotEng   =  -2986438.4880 E_bond   =    165261.1419 E_angle  =    706759.0968 
E_dihed  =    336506.3520 E_impro  =     14292.5055 E_vdwl   =   -132021.7420 
E_coul   =  13340862.4419 E_long   = -17418098.2840 Press    =       -27.9511 
Volume   =  19788507.6391 
---------------- Step     3450 ----- CPU =   1911.3264 (sec) ----------------
TotEng   =  -1608841.2981 KinEng   =   1377317.9333 Temp     =       300.0839 
PotEng   =  -2986159.2314 E_bond   =    165245.1965 E_angle  =    707716.8876 
E_dihed  =    337186.2618 E_impro  =     14295.0892 E_vdwl   =   -133427.0864 
E_coul   =  13341039.7475 E_long   = -17418215.3277 Press    =       -64.7600 
Volume   =  19788869.5650 
---------------- Step     3500 ----- CPU =   1939.2895 (sec) ----------------
TotEng   =  -1611331.1967 KinEng   =   1376526.9381 Temp     =       299.9115 
PotEng   =  -2987858.1348 E_bond   =    165269.8990 E_angle  =    706756.3724 
E_dihed  =    336973.0514 E_impro  =     14302.9545 E_vdwl   =   -133480.6254 
E_coul   =  13340557.9347 E_long   = -17418237.7214 Press    =        -2.7634 
Volume   =  19787670.1383 
---------------- Step     3550 ----- CPU =   1967.2619 (sec) ----------------
TotEng   =  -1613278.9435 KinEng   =   1375928.1408 Temp     =       299.7811 
PotEng   =  -2989207.0843 E_bond   =    165038.9008 E_angle  =    706660.0309 
E_dihed  =    336641.8068 E_impro  =     14417.7005 E_vdwl   =   -131763.2206 
E_coul   =  13337994.5384 E_long   = -17418196.8410 Press    =       -44.9754 
Volume   =  19785933.5750 
---------------- Step     3600 ----- CPU =   1995.4745 (sec) ----------------
TotEng   =  -1614289.8526 KinEng   =   1375409.6173 Temp     =       299.6681 
PotEng   =  -2989699.4699 E_bond   =    164426.9029 E_angle  =    706295.9298 
E_dihed  =    336861.6745 E_impro  =     14372.3214 E_vdwl   =   -131580.2779 
E_coul   =  13338121.9713 E_long   = -17418197.9918 Press    =       -27.0417 
Volume   =  19783800.5773 
---------------- Step     3650 ----- CPU =   2023.4475 (sec) ----------------
TotEng   =  -1613606.0468 KinEng   =   1375941.9837 Temp     =       299.7841 
PotEng   =  -2989548.0305 E_bond   =    165034.0522 E_angle  =    706568.7859 
E_dihed  =    336759.3176 E_impro  =     14419.3674 E_vdwl   =   -132667.1805 
E_coul   =  13338604.6532 E_long   = -17418267.0264 Press    =        24.8049 
Volume   =  19782819.8271 
---------------- Step     3700 ----- CPU =   2050.8594 (sec) ----------------
TotEng   =  -1611452.8334 KinEng   =   1377861.7910 Temp     =       300.2024 
PotEng   =  -2989314.6244 E_bond   =    165049.8845 E_angle  =    706830.7266 
E_dihed  =    337189.2519 E_impro  =     14485.8719 E_vdwl   =   -132668.4773 
E_coul   =  13338033.3966 E_long   = -17418235.2786 Press    =       -53.2990 
Volume   =  19782256.5213 
---------------- Step     3750 ----- CPU =   2078.8142 (sec) ----------------
TotEng   =  -1610755.7474 KinEng   =   1378548.7044 Temp     =       300.3520 
PotEng   =  -2989304.4518 E_bond   =    165263.8388 E_angle  =    706049.0622 
E_dihed  =    337081.5933 E_impro  =     14276.9797 E_vdwl   =   -131246.9836 
E_coul   =  13337493.9869 E_long   = -17418222.9293 Press    =        -3.7339 
Volume   =  19781706.4536 
---------------- Step     3800 ----- CPU =   2106.2293 (sec) ----------------
TotEng   =  -1612084.8788 KinEng   =   1377526.2745 Temp     =       300.1293 
PotEng   =  -2989611.1533 E_bond   =    164453.7204 E_angle  =    708156.9415 
E_dihed  =    336894.5810 E_impro  =     14444.9182 E_vdwl   =   -131133.5894 
E_coul   =  13335811.3192 E_long   = -17418239.0443 Press    =         6.5046 
Volume   =  19781430.3462 
---------------- Step     3850 ----- CPU =   2134.1950 (sec) ----------------
TotEng   =  -1613707.7397 KinEng   =   1376129.4673 Temp     =       299.8249 
PotEng   =  -2989837.2070 E_bond   =    164813.1210 E_angle  =    707942.7931 
E_dihed  =    337058.4149 E_impro  =     14488.6757 E_vdwl   =   -134984.9888 
E_coul   =  13339093.8712 E_long   = -17418249.0939 Press    =      -103.1790 
Volume   =  19780826.1551 
---------------- Step     3900 ----- CPU =   2161.6370 (sec) ----------------
TotEng   =  -1613731.2709 KinEng   =   1375753.6431 Temp     =       299.7430 
PotEng   =  -2989484.9139 E_bond   =    164690.0476 E_angle  =    707509.3540 
E_dihed  =    336941.1927 E_impro  =     14356.8389 E_vdwl   =   -132201.9435 
E_coul   =  13337418.5248 E_long   = -17418198.9285 Press    =       -22.3627 
Volume   =  19778869.2127 
---------------- Step     3950 ----- CPU =   2189.5922 (sec) ----------------
TotEng   =  -1612729.4357 KinEng   =   1376454.2078 Temp     =       299.8957 
PotEng   =  -2989183.6435 E_bond   =    165226.4284 E_angle  =    707601.2970 
E_dihed  =    337202.8556 E_impro  =     14257.4728 E_vdwl   =   -132414.3313 
E_coul   =  13337135.9949 E_long   = -17418193.3609 Press    =       -56.2135 
Volume   =  19776396.5080 
---------------- Step     4000 ----- CPU =   2217.5527 (sec) ----------------
TotEng   =  -1612001.8107 KinEng   =   1377760.1993 Temp     =       300.1802 
PotEng   =  -2989762.0100 E_bond   =    164603.5659 E_angle  =    707262.5681 
E_dihed  =    337564.3386 E_impro  =     14335.9421 E_vdwl   =   -132801.4059 
E_coul   =  13337496.6561 E_long   = -17418223.6748 Press    =       -17.7914 
Volume   =  19773478.1018 
---------------- Step     4050 ----- CPU =   2245.4689 (sec) ----------------
TotEng   =  -1612380.5345 KinEng   =   1377570.0704 Temp     =       300.1388 
PotEng   =  -2989950.6049 E_bond   =    165154.0880 E_angle  =    707162.2418 
E_dihed  =    337190.4686 E_impro  =     14233.9512 E_vdwl   =   -132673.2570 
E_coul   =  13337314.3343 E_long   = -17418332.4319 Press    =        16.5872 
Volume   =  19771229.3027 
---------------- Step     4100 ----- CPU =   2272.9030 (sec) ----------------
TotEng   =  -1613088.1919 KinEng   =   1375778.1447 Temp     =       299.7484 
PotEng   =  -2988866.3365 E_bond   =    165360.5063 E_angle  =    707933.3352 
E_dihed  =    337114.1411 E_impro  =     14441.5931 E_vdwl   =   -131775.8594 
E_coul   =  13336378.0841 E_long   = -17418318.1369 Press    =       -61.5078 
Volume   =  19770180.8958 
---------------- Step     4150 ----- CPU =   2300.3131 (sec) ----------------
TotEng   =  -1613234.5200 KinEng   =   1375825.5002 Temp     =       299.7587 
PotEng   =  -2989060.0201 E_bond   =    164954.5972 E_angle  =    707843.5449 
E_dihed  =    337041.8765 E_impro  =     14387.1537 E_vdwl   =   -132632.7694 
E_coul   =  13337563.4496 E_long   = -17418217.8725 Press    =        -0.5667 
Volume   =  19771142.7046 
---------------- Step     4200 ----- CPU =   2328.2853 (sec) ----------------
TotEng   =  -1613023.1253 KinEng   =   1376106.9463 Temp     =       299.8200 
PotEng   =  -2989130.0716 E_bond   =    166231.2574 E_angle  =    708126.2671 
E_dihed  =    336828.8627 E_impro  =     14484.1448 E_vdwl   =   -133278.4996 
E_coul   =  13336949.1502 E_long   = -17418471.2542 Press    =       -71.9677 
Volume   =  19773054.7821 
---------------- Step     4250 ----- CPU =   2355.7012 (sec) ----------------
TotEng   =  -1613564.6737 KinEng   =   1376757.9984 Temp     =       299.9619 
PotEng   =  -2990322.6721 E_bond   =    164888.5593 E_angle  =    707793.4750 
E_dihed  =    336964.3226 E_impro  =     14346.9707 E_vdwl   =   -132899.7204 
E_coul   =  13336863.5844 E_long   = -17418279.8636 Press    =         2.4076 
Volume   =  19773909.5930 
---------------- Step     4300 ----- CPU =   2383.6807 (sec) ----------------
TotEng   =  -1614405.6011 KinEng   =   1377310.4436 Temp     =       300.0822 
PotEng   =  -2991716.0447 E_bond   =    165143.0339 E_angle  =    707184.7787 
E_dihed  =    336805.2002 E_impro  =     14240.1104 E_vdwl   =   -133619.1610 
E_coul   =  13336743.1185 E_long   = -17418213.1253 Press    =       -38.1693 
Volume   =  19773298.7253 
---------------- Step     4350 ----- CPU =   2411.0959 (sec) ----------------
TotEng   =  -1614166.8364 KinEng   =   1376295.6599 Temp     =       299.8611 
PotEng   =  -2990462.4963 E_bond   =    164943.7298 E_angle  =    708037.2465 
E_dihed  =    336945.5794 E_impro  =     14414.3676 E_vdwl   =   -132649.2256 
E_coul   =  13336101.1013 E_long   = -17418255.2953 Press    =        23.7836 
Volume   =  19771640.8505 
---------------- Step     4400 ----- CPU =   2439.0507 (sec) ----------------
TotEng   =  -1612857.1679 KinEng   =   1377604.6829 Temp     =       300.1463 
PotEng   =  -2990461.8508 E_bond   =    165413.4533 E_angle  =    707632.2905 
E_dihed  =    337012.7111 E_impro  =     14381.3567 E_vdwl   =   -131757.2568 
E_coul   =  13335140.8625 E_long   = -17418285.2680 Press    =       -39.2773 
Volume   =  19769153.3382 
---------------- Step     4450 ----- CPU =   2467.0347 (sec) ----------------
TotEng   =  -1612550.6688 KinEng   =   1376085.8888 Temp     =       299.8154 
PotEng   =  -2988636.5575 E_bond   =    165470.0923 E_angle  =    708613.0025 
E_dihed  =    337247.1110 E_impro  =     14542.8732 E_vdwl   =   -132223.2670 
E_coul   =  13336093.7410 E_long   = -17418380.1105 Press    =       -23.1729 
Volume   =  19766181.3100 
---------------- Step     4500 ----- CPU =   2494.4229 (sec) ----------------
TotEng   =  -1613896.3892 KinEng   =   1377340.8024 Temp     =       300.0888 
PotEng   =  -2991237.1916 E_bond   =    165312.6794 E_angle  =    707986.6395 
E_dihed  =    336747.7555 E_impro  =     14310.6478 E_vdwl   =   -131810.9211 
E_coul   =  13334511.8963 E_long   = -17418295.8890 Press    =       -25.9323 
Volume   =  19764129.9903 
---------------- Step     4550 ----- CPU =   2522.3974 (sec) ----------------
TotEng   =  -1615652.1825 KinEng   =   1375396.3864 Temp     =       299.6652 
PotEng   =  -2991048.5689 E_bond   =    164843.2419 E_angle  =    708032.4494 
E_dihed  =    336466.0269 E_impro  =     14423.5048 E_vdwl   =   -132740.4945 
E_coul   =  13336214.3649 E_long   = -17418287.6623 Press    =        20.4748 
Volume   =  19763187.6184 
---------------- Step     4600 ----- CPU =   2549.7667 (sec) ----------------
TotEng   =  -1615673.3092 KinEng   =   1377059.2413 Temp     =       300.0275 
PotEng   =  -2992732.5505 E_bond   =    164713.3820 E_angle  =    707961.9683 
E_dihed  =    336577.4683 E_impro  =     14280.2610 E_vdwl   =   -131018.6869 
E_coul   =  13333071.6252 E_long   = -17418318.5684 Press    =        21.6151 
Volume   =  19763473.4118 
---------------- Step     4650 ----- CPU =   2577.7877 (sec) ----------------
TotEng   =  -1614691.9525 KinEng   =   1377599.2802 Temp     =       300.1452 
PotEng   =  -2992291.2327 E_bond   =    164787.0063 E_angle  =    707504.1554 
E_dihed  =    336836.1433 E_impro  =     14326.7168 E_vdwl   =   -132500.2915 
E_coul   =  13335020.9973 E_long   = -17418265.9602 Press    =       -21.1901 
Volume   =  19764153.2255 
---------------- Step     4700 ----- CPU =   2605.7672 (sec) ----------------
TotEng   =  -1613896.8062 KinEng   =   1377144.4527 Temp     =       300.0461 
PotEng   =  -2991041.2589 E_bond   =    165318.7943 E_angle  =    708021.2871 
E_dihed  =    336705.0275 E_impro  =     14147.7252 E_vdwl   =   -131727.4558 
E_coul   =  13334715.9595 E_long   = -17418222.5967 Press    =        43.3044 
Volume   =  19763680.3953 
---------------- Step     4750 ----- CPU =   2633.7462 (sec) ----------------
TotEng   =  -1613962.0020 KinEng   =   1377473.8944 Temp     =       300.1178 
PotEng   =  -2991435.8964 E_bond   =    165342.5309 E_angle  =    708695.8062 
E_dihed  =    336940.9916 E_impro  =     14396.3004 E_vdwl   =   -132450.9492 
E_coul   =  13333928.4787 E_long   = -17418289.0549 Press    =       -37.3492 
Volume   =  19763420.2856 
---------------- Step     4800 ----- CPU =   2661.7070 (sec) ----------------
TotEng   =  -1614894.1629 KinEng   =   1377541.5438 Temp     =       300.1326 
PotEng   =  -2992435.7067 E_bond   =    164338.3885 E_angle  =    708843.6564 
E_dihed  =    336922.6705 E_impro  =     14300.5036 E_vdwl   =   -130980.3566 
E_coul   =  13332408.4880 E_long   = -17418269.0570 Press    =         1.0077 
Volume   =  19762908.1251 
---------------- Step     4850 ----- CPU =   2689.6579 (sec) ----------------
TotEng   =  -1616188.3400 KinEng   =   1377982.4498 Temp     =       300.2286 
PotEng   =  -2994170.7898 E_bond   =    165224.5758 E_angle  =    707370.8177 
E_dihed  =    337266.3827 E_impro  =     14276.8198 E_vdwl   =   -131883.3151 
E_coul   =  13331820.3165 E_long   = -17418246.3872 Press    =       -23.2168 
Volume   =  19762323.2607 
---------------- Step     4900 ----- CPU =   2717.0500 (sec) ----------------
TotEng   =  -1617904.2027 KinEng   =   1375842.9985 Temp     =       299.7625 
PotEng   =  -2993747.2012 E_bond   =    165231.7913 E_angle  =    708074.2977 
E_dihed  =    336544.2221 E_impro  =     14339.4443 E_vdwl   =   -131791.4082 
E_coul   =  13332143.5167 E_long   = -17418289.0651 Press    =       -40.2312 
Volume   =  19761973.6531 
---------------- Step     4950 ----- CPU =   2744.9838 (sec) ----------------
TotEng   =  -1618133.8727 KinEng   =   1374732.4811 Temp     =       299.5206 
PotEng   =  -2992866.3537 E_bond   =    164832.9791 E_angle  =    708667.2664 
E_dihed  =    336824.0945 E_impro  =     14471.2071 E_vdwl   =   -132115.8905 
E_coul   =  13332741.2779 E_long   = -17418287.2882 Press    =         6.4896 
Volume   =  19760617.5486 
---------------- Step     5000 ----- CPU =   2772.9444 (sec) ----------------
TotEng   =  -1616365.0517 KinEng   =   1376752.9914 Temp     =       299.9608 
PotEng   =  -2993118.0431 E_bond   =    165075.6180 E_angle  =    708396.2993 
E_dihed  =    336586.3035 E_impro  =     14385.5969 E_vdwl   =   -132477.7138 
E_coul   =  13333262.0868 E_long   = -17418346.2339 Press    =         2.6076 
Volume   =  19758881.6399 
---------------- Step     5050 ----- CPU =   2800.3415 (sec) ----------------
TotEng   =  -1614582.0002 KinEng   =   1376622.5029 Temp     =       299.9323 
PotEng   =  -2991204.5031 E_bond   =    165458.3794 E_angle  =    708434.8018 
E_dihed  =    337434.6946 E_impro  =     14515.4761 E_vdwl   =   -130084.2946 
E_coul   =  13331308.7577 E_long   = -17418272.3181 Press    =        38.0147 
Volume   =  19756730.5859 
---------------- Step     5100 ----- CPU =   2828.2629 (sec) ----------------
TotEng   =  -1613675.7807 KinEng   =   1378595.2855 Temp     =       300.3622 
PotEng   =  -2992271.0662 E_bond   =    165330.5616 E_angle  =    709179.5981 
E_dihed  =    337566.1342 E_impro  =     14390.9549 E_vdwl   =   -133624.8055 
E_coul   =  13333228.9068 E_long   = -17418342.4164 Press    =       -74.8532 
Volume   =  19756185.4927 
---------------- Step     5150 ----- CPU =   2855.6687 (sec) ----------------
TotEng   =  -1614171.7341 KinEng   =   1377913.1504 Temp     =       300.2135 
PotEng   =  -2992084.8845 E_bond   =    165608.8576 E_angle  =    708879.6002 
E_dihed  =    337024.5034 E_impro  =     14370.1657 E_vdwl   =   -132336.8445 
E_coul   =  13332758.0465 E_long   = -17418389.2134 Press    =        36.4631 
Volume   =  19755615.0559 
---------------- Step     5200 ----- CPU =   2883.5469 (sec) ----------------
TotEng   =  -1616730.5097 KinEng   =   1376438.2391 Temp     =       299.8922 
PotEng   =  -2993168.7488 E_bond   =    165323.7729 E_angle  =    708203.2176 
E_dihed  =    336701.6611 E_impro  =     14323.5266 E_vdwl   =   -129883.1768 
E_coul   =  13330407.9183 E_long   = -17418245.6686 Press    =        57.3758 
Volume   =  19757372.4188 
---------------- Step     5250 ----- CPU =   2910.9233 (sec) ----------------
TotEng   =  -1618673.7968 KinEng   =   1375852.7102 Temp     =       299.7646 
PotEng   =  -2994526.5070 E_bond   =    165412.4286 E_angle  =    707288.3333 
E_dihed  =    337035.4213 E_impro  =     14461.0414 E_vdwl   =   -132843.1687 
E_coul   =  13332453.7145 E_long   = -17418334.2773 Press    =       -60.5245 
Volume   =  19760177.5744 
---------------- Step     5300 ----- CPU =   2938.8569 (sec) ----------------
TotEng   =  -1618078.8992 KinEng   =   1376895.3732 Temp     =       299.9918 
PotEng   =  -2994974.2724 E_bond   =    164743.5782 E_angle  =    708138.3940 
E_dihed  =    336885.8426 E_impro  =     14389.1245 E_vdwl   =   -132687.9180 
E_coul   =  13331934.4135 E_long   = -17418377.7073 Press    =       -55.5567 
Volume   =  19761714.2966 
---------------- Step     5350 ----- CPU =   2966.8247 (sec) ----------------
TotEng   =  -1616154.3364 KinEng   =   1376564.1766 Temp     =       299.9196 
PotEng   =  -2992718.5129 E_bond   =    165489.4470 E_angle  =    708366.5961 
E_dihed  =    336855.4880 E_impro  =     14398.7098 E_vdwl   =   -130724.6073 
E_coul   =  13331204.6596 E_long   = -17418308.8061 Press    =        23.5786 
Volume   =  19761456.6861 
---------------- Step     5400 ----- CPU =   2994.7932 (sec) ----------------
TotEng   =  -1614628.0645 KinEng   =   1377826.6444 Temp     =       300.1947 
PotEng   =  -2992454.7089 E_bond   =    165473.5477 E_angle  =    709230.6649 
E_dihed  =    336988.5757 E_impro  =     14355.9071 E_vdwl   =   -133707.1366 
E_coul   =  13333499.9306 E_long   = -17418296.1981 Press    =       -69.2708 
Volume   =  19762237.4819 
---------------- Step     5450 ----- CPU =   3022.1668 (sec) ----------------
TotEng   =  -1614537.5315 KinEng   =   1376871.5900 Temp     =       299.9866 
PotEng   =  -2991409.1214 E_bond   =    165308.0628 E_angle  =    709396.6080 
E_dihed  =    337237.6328 E_impro  =     14377.5282 E_vdwl   =   -132196.9204 
E_coul   =  13332765.6018 E_long   = -17418297.6347 Press    =       -12.3437 
Volume   =  19761502.8463 
---------------- Step     5500 ----- CPU =   3050.1163 (sec) ----------------
TotEng   =  -1615260.1183 KinEng   =   1376435.5858 Temp     =       299.8916 
PotEng   =  -2991695.7041 E_bond   =    165764.6717 E_angle  =    708644.1713 
E_dihed  =    337254.2315 E_impro  =     14476.6538 E_vdwl   =   -131877.2588 
E_coul   =  13332374.0501 E_long   = -17418332.2238 Press    =         6.4169 
Volume   =  19760072.5787 
---------------- Step     5550 ----- CPU =   3077.5295 (sec) ----------------
TotEng   =  -1616406.7131 KinEng   =   1376435.3639 Temp     =       299.8916 
PotEng   =  -2992842.0770 E_bond   =    165530.4469 E_angle  =    708504.1180 
E_dihed  =    336644.2421 E_impro  =     14328.5914 E_vdwl   =   -132451.3585 
E_coul   =  13332827.9347 E_long   = -17418226.0516 Press    =        -9.9780 
Volume   =  19760087.4400 
---------------- Step     5600 ----- CPU =   3105.4665 (sec) ----------------
TotEng   =  -1616263.1856 KinEng   =   1376151.5149 Temp     =       299.8297 
PotEng   =  -2992414.7005 E_bond   =    165790.7272 E_angle  =    708995.3647 
E_dihed  =    337324.5898 E_impro  =     14417.5349 E_vdwl   =   -133081.1842 
E_coul   =  13332442.0243 E_long   = -17418303.7572 Press    =       -59.5360 
Volume   =  19761460.0010 
---------------- Step     5650 ----- CPU =   3133.4021 (sec) ----------------
TotEng   =  -1615059.6471 KinEng   =   1376438.2091 Temp     =       299.8922 
PotEng   =  -2991497.8562 E_bond   =    165660.0032 E_angle  =    709088.9020 
E_dihed  =    336967.3738 E_impro  =     14510.8939 E_vdwl   =   -133593.2957 
E_coul   =  13334289.1480 E_long   = -17418420.8814 Press    =       -39.3015 
Volume   =  19761264.7727 
---------------- Step     5700 ----- CPU =   3160.7443 (sec) ----------------
TotEng   =  -1614197.0081 KinEng   =   1377869.4431 Temp     =       300.2040 
PotEng   =  -2992066.4512 E_bond   =    165972.9344 E_angle  =    708817.0130 
E_dihed  =    337328.6082 E_impro  =     14487.7964 E_vdwl   =   -131351.7062 
E_coul   =  13330948.5665 E_long   = -17418269.6636 Press    =       -35.8459 
Volume   =  19759477.6498 
---------------- Step     5750 ----- CPU =   3188.6500 (sec) ----------------
TotEng   =  -1615257.8479 KinEng   =   1377332.6201 Temp     =       300.0871 
PotEng   =  -2992590.4680 E_bond   =    165705.5269 E_angle  =    708130.7626 
E_dihed  =    337597.6607 E_impro  =     14388.4162 E_vdwl   =   -132120.2585 
E_coul   =  13331964.1082 E_long   = -17418256.6840 Press    =        -0.5329 
Volume   =  19757396.3620 
---------------- Step     5800 ----- CPU =   3216.0649 (sec) ----------------
TotEng   =  -1616828.6463 KinEng   =   1376787.4003 Temp     =       299.9683 
PotEng   =  -2993616.0466 E_bond   =    166094.6747 E_angle  =    709557.9687 
E_dihed  =    337159.4750 E_impro  =     14528.7061 E_vdwl   =   -132414.9102 
E_coul   =  13329688.7541 E_long   = -17418230.7150 Press    =       -88.3574 
Volume   =  19755768.9553 
---------------- Step     5850 ----- CPU =   3244.0279 (sec) ----------------
TotEng   =  -1618787.0578 KinEng   =   1375657.9577 Temp     =       299.7222 
PotEng   =  -2994445.0155 E_bond   =    165557.9036 E_angle  =    708472.9759 
E_dihed  =    337114.0661 E_impro  =     14351.1341 E_vdwl   =   -131104.0401 
E_coul   =  13329417.3186 E_long   = -17418254.3738 Press    =       -28.8975 
Volume   =  19753560.6765 
---------------- Step     5900 ----- CPU =   3271.9494 (sec) ----------------
TotEng   =  -1619581.3756 KinEng   =   1376804.3562 Temp     =       299.9720 
PotEng   =  -2996385.7318 E_bond   =    165036.6547 E_angle  =    708913.4065 
E_dihed  =    336690.4025 E_impro  =     14440.0364 E_vdwl   =   -131513.7360 
E_coul   =  13328464.2194 E_long   = -17418416.7153 Press    =         4.0926 
Volume   =  19751066.4912 
---------------- Step     5950 ----- CPU =   3299.8870 (sec) ----------------
TotEng   =  -1618978.3083 KinEng   =   1375768.7677 Temp     =       299.7463 
PotEng   =  -2994747.0760 E_bond   =    165238.5347 E_angle  =    708570.4022 
E_dihed  =    336829.5475 E_impro  =     14434.3855 E_vdwl   =   -132215.2991 
E_coul   =  13330669.7212 E_long   = -17418274.3681 Press    =        18.3282 
Volume   =  19749945.0251 
---------------- Step     6000 ----- CPU =   3327.8221 (sec) ----------------
TotEng   =  -1617238.5196 KinEng   =   1378678.9503 Temp     =       300.3804 
PotEng   =  -2995917.4699 E_bond   =    165487.0440 E_angle  =    708086.7274 
E_dihed  =    337265.1155 E_impro  =     14388.8075 E_vdwl   =   -132770.5845 
E_coul   =  13329824.6444 E_long   = -17418199.2242 Press    =       -39.0772 
Volume   =  19750706.5385 
---------------- Step     6050 ----- CPU =   3355.1970 (sec) ----------------
TotEng   =  -1615865.2368 KinEng   =   1378628.0007 Temp     =       300.3693 
PotEng   =  -2994493.2375 E_bond   =    165375.4464 E_angle  =    709079.7233 
E_dihed  =    337473.6630 E_impro  =     14338.7818 E_vdwl   =   -132045.9196 
E_coul   =  13329504.2169 E_long   = -17418219.1493 Press    =       -55.0274 
Volume   =  19752258.7777 
---------------- Step     6100 ----- CPU =   3383.1257 (sec) ----------------
TotEng   =  -1616007.7264 KinEng   =   1378160.8863 Temp     =       300.2675 
PotEng   =  -2994168.6126 E_bond   =    165458.6282 E_angle  =    710131.2972 
E_dihed  =    336672.2998 E_impro  =     14462.0960 E_vdwl   =   -133572.3869 
E_coul   =  13331063.8983 E_long   = -17418384.4453 Press    =       -51.7434 
Volume   =  19754010.3888 
---------------- Step     6150 ----- CPU =   3410.5198 (sec) ----------------
TotEng   =  -1616896.4834 KinEng   =   1375766.5295 Temp     =       299.7458 
PotEng   =  -2992663.0128 E_bond   =    165684.6063 E_angle  =    709718.2525 
E_dihed  =    337405.2381 E_impro  =     14391.0756 E_vdwl   =   -132498.7243 
E_coul   =  13330962.0106 E_long   = -17418325.4717 Press    =       -60.2274 
Volume   =  19754926.2078 
---------------- Step     6200 ----- CPU =   3438.4612 (sec) ----------------
TotEng   =  -1617798.8050 KinEng   =   1376350.1275 Temp     =       299.8730 
PotEng   =  -2994148.9325 E_bond   =    165413.8098 E_angle  =    709575.3897 
E_dihed  =    336679.1781 E_impro  =     14321.6286 E_vdwl   =   -131063.3803 
E_coul   =  13329296.9167 E_long   = -17418372.4752 Press    =       -11.4036 
Volume   =  19755041.2308 
---------------- Step     6250 ----- CPU =   3466.4130 (sec) ----------------
TotEng   =  -1618039.9759 KinEng   =   1376804.5092 Temp     =       299.9720 
PotEng   =  -2994844.4852 E_bond   =    165259.0182 E_angle  =    708986.2061 
E_dihed  =    337164.1470 E_impro  =     14355.5368 E_vdwl   =   -131817.6071 
E_coul   =  13329578.3047 E_long   = -17418370.0909 Press    =       -34.5551 
Volume   =  19753954.7700 
---------------- Step     6300 ----- CPU =   3494.3592 (sec) ----------------
TotEng   =  -1617686.2131 KinEng   =   1377612.9478 Temp     =       300.1481 
PotEng   =  -2995299.1609 E_bond   =    165167.1753 E_angle  =    709434.6959 
E_dihed  =    337037.3139 E_impro  =     14412.4645 E_vdwl   =   -131248.5790 
E_coul   =  13328301.2561 E_long   = -17418403.4876 Press    =        23.7678 
Volume   =  19751603.2860 
---------------- Step     6350 ----- CPU =   3522.2849 (sec) ----------------
TotEng   =  -1617385.5349 KinEng   =   1376083.8021 Temp     =       299.8150 
PotEng   =  -2993469.3370 E_bond   =    165418.3679 E_angle  =    710334.2596 
E_dihed  =    336726.6769 E_impro  =     14364.3030 E_vdwl   =   -131393.6602 
E_coul   =  13329480.5992 E_long   = -17418399.8833 Press    =        11.8926 
Volume   =  19750281.1785 
---------------- Step     6400 ----- CPU =   3550.2082 (sec) ----------------
TotEng   =  -1617182.4698 KinEng   =   1377321.7886 Temp     =       300.0847 
PotEng   =  -2994504.2585 E_bond   =    165693.5654 E_angle  =    709577.8714 
E_dihed  =    337026.5246 E_impro  =     14360.9675 E_vdwl   =   -131786.9074 
E_coul   =  13329018.2217 E_long   = -17418394.5017 Press    =       -60.9085 
Volume   =  19749890.2135 
---------------- Step     6450 ----- CPU =   3577.5794 (sec) ----------------
TotEng   =  -1617376.3521 KinEng   =   1376053.9244 Temp     =       299.8085 
PotEng   =  -2993430.2764 E_bond   =    165430.3134 E_angle  =    709938.6497 
E_dihed  =    337295.6156 E_impro  =     14562.9286 E_vdwl   =   -131169.4108 
E_coul   =  13328717.1793 E_long   = -17418205.5523 Press    =       -26.0170 
Volume   =  19749373.0731 
---------------- Step     6500 ----- CPU =   3604.9704 (sec) ----------------
TotEng   =  -1617396.6730 KinEng   =   1377410.1895 Temp     =       300.1040 
PotEng   =  -2994806.8625 E_bond   =    165247.0232 E_angle  =    709348.3750 
E_dihed  =    337184.8712 E_impro  =     14449.5841 E_vdwl   =   -132103.6272 
E_coul   =  13329408.4499 E_long   = -17418341.5386 Press    =       -30.2482 
Volume   =  19750611.1453 
---------------- Step     6550 ----- CPU =   3632.8956 (sec) ----------------
TotEng   =  -1617307.0986 KinEng   =   1377162.0733 Temp     =       300.0499 
PotEng   =  -2994469.1719 E_bond   =    165416.6303 E_angle  =    709349.4786 
E_dihed  =    336915.5888 E_impro  =     14426.5083 E_vdwl   =   -131598.3080 
E_coul   =  13329457.1873 E_long   = -17418436.2572 Press    =        -3.9075 
Volume   =  19751453.8134 
---------------- Step     6600 ----- CPU =   3660.8751 (sec) ----------------
TotEng   =  -1617634.7407 KinEng   =   1376025.4765 Temp     =       299.8023 
PotEng   =  -2993660.2172 E_bond   =    165555.6535 E_angle  =    710083.4749 
E_dihed  =    337251.1390 E_impro  =     14343.6078 E_vdwl   =   -132347.3890 
E_coul   =  13329849.6710 E_long   = -17418396.3745 Press    =       -63.5153 
Volume   =  19752869.7445 
---------------- Step     6650 ----- CPU =   3688.3236 (sec) ----------------
TotEng   =  -1617534.9117 KinEng   =   1376055.2640 Temp     =       299.8088 
PotEng   =  -2993590.1757 E_bond   =    165610.0346 E_angle  =    709890.4276 
E_dihed  =    337127.4432 E_impro  =     14336.2937 E_vdwl   =   -131971.5539 
E_coul   =  13329828.4337 E_long   = -17418411.2546 Press    =       -33.5505 
Volume   =  19752645.7825 
---------------- Step     6700 ----- CPU =   3715.7734 (sec) ----------------
TotEng   =  -1616104.1575 KinEng   =   1376495.4254 Temp     =       299.9047 
PotEng   =  -2992599.5829 E_bond   =    165856.3620 E_angle  =    710111.8582 
E_dihed  =    337412.7026 E_impro  =     14322.1128 E_vdwl   =   -132120.3657 
E_coul   =  13330135.7555 E_long   = -17418318.0082 Press    =         6.8449 
Volume   =  19751404.0841 
---------------- Step     6750 ----- CPU =   3743.7271 (sec) ----------------
TotEng   =  -1615014.6508 KinEng   =   1378012.5433 Temp     =       300.2352 
PotEng   =  -2993027.1941 E_bond   =    165738.2150 E_angle  =    709908.7890 
E_dihed  =    337248.7980 E_impro  =     14465.5569 E_vdwl   =   -131703.9584 
E_coul   =  13329739.8696 E_long   = -17418424.4642 Press    =       -40.5220 
Volume   =  19750612.9714 
---------------- Step     6800 ----- CPU =   3771.6950 (sec) ----------------
TotEng   =  -1615778.0341 KinEng   =   1376270.1980 Temp     =       299.8556 
PotEng   =  -2992048.2321 E_bond   =    166206.8680 E_angle  =    709913.7700 
E_dihed  =    337266.8508 E_impro  =     14393.1265 E_vdwl   =   -131783.0031 
E_coul   =  13330314.2441 E_long   = -17418360.0883 Press    =        -3.2315 
Volume   =  19750321.1285 
---------------- Step     6850 ----- CPU =   3799.7093 (sec) ----------------
TotEng   =  -1618005.0402 KinEng   =   1375855.1265 Temp     =       299.7651 
PotEng   =  -2993860.1667 E_bond   =    165728.8504 E_angle  =    709802.4032 
E_dihed  =    337300.4369 E_impro  =     14363.4302 E_vdwl   =   -132889.7424 
E_coul   =  13330141.7187 E_long   = -17418307.2637 Press    =       -62.3153 
Volume   =  19750591.6317 
---------------- Step     6900 ----- CPU =   3827.1026 (sec) ----------------
TotEng   =  -1620223.4398 KinEng   =   1375661.5788 Temp     =       299.7230 
PotEng   =  -2995885.0187 E_bond   =    165165.6348 E_angle  =    709570.7573 
E_dihed  =    336777.9443 E_impro  =     14403.8225 E_vdwl   =   -131924.6050 
E_coul   =  13328442.5407 E_long   = -17418321.1133 Press    =       -56.5187 
Volume   =  19750340.9132 
---------------- Step     6950 ----- CPU =   3855.0511 (sec) ----------------
TotEng   =  -1620407.3109 KinEng   =   1375774.0588 Temp     =       299.7475 
PotEng   =  -2996181.3697 E_bond   =    165718.0399 E_angle  =    708993.4836 
E_dihed  =    336770.1674 E_impro  =     14372.9238 E_vdwl   =   -132541.8515 
E_coul   =  13328971.8365 E_long   = -17418465.9694 Press    =       -89.2548 
Volume   =  19748394.0872 
---------------- Step     7000 ----- CPU =   3882.9969 (sec) ----------------
TotEng   =  -1618510.4635 KinEng   =   1376819.5698 Temp     =       299.9753 
PotEng   =  -2995330.0333 E_bond   =    166246.0490 E_angle  =    708965.9206 
E_dihed  =    337139.1266 E_impro  =     14451.7292 E_vdwl   =   -131278.2001 
E_coul   =  13327411.5545 E_long   = -17418266.2131 Press    =       -11.0474 
Volume   =  19745174.1574 
---------------- Step     7050 ----- CPU =   3910.4049 (sec) ----------------
TotEng   =  -1616452.6175 KinEng   =   1377090.9122 Temp     =       300.0344 
PotEng   =  -2993543.5297 E_bond   =    165961.1344 E_angle  =    710655.5867 
E_dihed  =    337332.8970 E_impro  =     14501.1221 E_vdwl   =   -130547.8080 
E_coul   =  13326872.7951 E_long   = -17418319.2571 Press    =       -25.5389 
Volume   =  19742259.2234 
---------------- Step     7100 ----- CPU =   3938.3435 (sec) ----------------
TotEng   =  -1616288.2295 KinEng   =   1378004.0528 Temp     =       300.2333 
PotEng   =  -2994292.2822 E_bond   =    165777.1458 E_angle  =    710304.8801 
E_dihed  =    336952.5765 E_impro  =     14436.2741 E_vdwl   =   -131863.2116 
E_coul   =  13328469.6563 E_long   = -17418369.6035 Press    =       -67.7932 
Volume   =  19740193.2808 
---------------- Step     7150 ----- CPU =   3965.7362 (sec) ----------------
TotEng   =  -1617921.9850 KinEng   =   1377860.1388 Temp     =       300.2020 
PotEng   =  -2995782.1238 E_bond   =    165256.7789 E_angle  =    709164.0739 
E_dihed  =    337307.9769 E_impro  =     14508.7346 E_vdwl   =   -131339.5347 
E_coul   =  13327763.8991 E_long   = -17418444.0525 Press    =        -9.2875 
Volume   =  19738824.4530 
---------------- Step     7200 ----- CPU =   3993.6860 (sec) ----------------
TotEng   =  -1619944.0598 KinEng   =   1375754.0633 Temp     =       299.7431 
PotEng   =  -2995698.1231 E_bond   =    165842.5433 E_angle  =    710022.0062 
E_dihed  =    336813.1554 E_impro  =     14468.3148 E_vdwl   =   -130607.7813 
E_coul   =  13326131.7644 E_long   = -17418368.1258 Press    =       -62.2814 
Volume   =  19739328.8727 
---------------- Step     7250 ----- CPU =   4021.7172 (sec) ----------------
TotEng   =  -1620736.4788 KinEng   =   1374566.3860 Temp     =       299.4844 
PotEng   =  -2995302.8648 E_bond   =    165661.0890 E_angle  =    709810.7920 
E_dihed  =    337016.5814 E_impro  =     14374.8197 E_vdwl   =   -130918.6143 
E_coul   =  13327134.7817 E_long   = -17418382.3142 Press    =        -5.5227 
Volume   =  19740346.8651 
---------------- Step     7300 ----- CPU =   4049.1180 (sec) ----------------
TotEng   =  -1618931.7203 KinEng   =   1376308.3005 Temp     =       299.8639 
PotEng   =  -2995240.0208 E_bond   =    165639.1763 E_angle  =    711020.5778 
E_dihed  =    337250.1773 E_impro  =     14329.2319 E_vdwl   =   -131754.9720 
E_coul   =  13326738.9591 E_long   = -17418463.1711 Press    =       -14.4451 
Volume   =  19741603.9698 
---------------- Step     7350 ----- CPU =   4077.1201 (sec) ----------------
TotEng   =  -1617254.8084 KinEng   =   1376726.7376 Temp     =       299.9551 
PotEng   =  -2993981.5460 E_bond   =    166261.7051 E_angle  =    710720.2483 
E_dihed  =    337056.7475 E_impro  =     14373.3686 E_vdwl   =   -131230.8127 
E_coul   =  13327190.9591 E_long   = -17418353.7618 Press    =       -57.0301 
Volume   =  19742171.1711 
---------------- Step     7400 ----- CPU =   4105.0863 (sec) ----------------
TotEng   =  -1617485.6233 KinEng   =   1378070.9556 Temp     =       300.2479 
PotEng   =  -2995556.5788 E_bond   =    165807.1683 E_angle  =    710628.4173 
E_dihed  =    337050.5953 E_impro  =     14313.0786 E_vdwl   =   -131834.0792 
E_coul   =  13326874.2764 E_long   = -17418396.0355 Press    =       -12.2707 
Volume   =  19742022.8372 
---------------- Step     7450 ----- CPU =   4132.5569 (sec) ----------------
TotEng   =  -1618878.3816 KinEng   =   1375196.3016 Temp     =       299.6216 
PotEng   =  -2994074.6831 E_bond   =    165763.1595 E_angle  =    711485.6011 
E_dihed  =    337026.8019 E_impro  =     14242.8205 E_vdwl   =   -131952.0749 
E_coul   =  13327685.0132 E_long   = -17418326.0045 Press    =       -34.0560 
Volume   =  19742413.3107 
---------------- Step     7500 ----- CPU =   4160.5605 (sec) ----------------
TotEng   =  -1619890.7238 KinEng   =   1376156.1696 Temp     =       299.8307 
PotEng   =  -2996046.8934 E_bond   =    165924.8594 E_angle  =    711050.2319 
E_dihed  =    336757.9733 E_impro  =     14236.4297 E_vdwl   =   -131983.9423 
E_coul   =  13326346.9341 E_long   = -17418379.3795 Press    =       -33.5959 
Volume   =  19742706.8049 
---------------- Step     7550 ----- CPU =   4188.5205 (sec) ----------------
TotEng   =  -1619171.1072 KinEng   =   1376281.7418 Temp     =       299.8581 
PotEng   =  -2995452.8490 E_bond   =    165967.6110 E_angle  =    710161.2236 
E_dihed  =    337250.1226 E_impro  =     14435.1347 E_vdwl   =   -132677.3404 
E_coul   =  13327769.1326 E_long   = -17418358.7331 Press    =       -18.7277 
Volume   =  19743364.9717 
---------------- Step     7600 ----- CPU =   4216.5188 (sec) ----------------
TotEng   =  -1617349.5647 KinEng   =   1377378.3404 Temp     =       300.0970 
PotEng   =  -2994727.9051 E_bond   =    165647.8250 E_angle  =    711199.7072 
E_dihed  =    337014.8449 E_impro  =     14423.7751 E_vdwl   =   -132541.8320 
E_coul   =  13328024.3529 E_long   = -17418496.5781 Press    =       -33.2714 
Volume   =  19744541.8366 
---------------- Step     7650 ----- CPU =   4243.9482 (sec) ----------------
TotEng   =  -1616986.3743 KinEng   =   1378614.7050 Temp     =       300.3664 
PotEng   =  -2995601.0792 E_bond   =    165823.5746 E_angle  =    710998.6067 
E_dihed  =    336984.6059 E_impro  =     14383.0493 E_vdwl   =   -132203.4940 
E_coul   =  13326732.0713 E_long   = -17418319.4930 Press    =        18.8893 
Volume   =  19745139.0374 
---------------- Step     7700 ----- CPU =   4271.9147 (sec) ----------------
TotEng   =  -1618572.2182 KinEng   =   1376591.3049 Temp     =       299.9255 
PotEng   =  -2995163.5231 E_bond   =    165814.7016 E_angle  =    710383.9502 
E_dihed  =    337258.4394 E_impro  =     14455.9444 E_vdwl   =   -132320.1953 
E_coul   =  13327522.9604 E_long   = -17418279.3237 Press    =       -58.7710 
Volume   =  19745155.5553 
---------------- Step     7750 ----- CPU =   4299.3417 (sec) ----------------
TotEng   =  -1619568.2324 KinEng   =   1375481.9461 Temp     =       299.6838 
PotEng   =  -2995050.1785 E_bond   =    166510.6696 E_angle  =    710851.8553 
E_dihed  =    336809.4034 E_impro  =     14367.9179 E_vdwl   =   -131350.7527 
E_coul   =  13326083.6603 E_long   = -17418322.9322 Press    =       -62.1601 
Volume   =  19745074.4174 
---------------- Step     7800 ----- CPU =   4327.3041 (sec) ----------------
TotEng   =  -1619598.2161 KinEng   =   1376692.7192 Temp     =       299.9476 
PotEng   =  -2996290.9353 E_bond   =    165548.4369 E_angle  =    710823.6803 
E_dihed  =    337121.4019 E_impro  =     14464.8305 E_vdwl   =   -130935.4760 
E_coul   =  13324977.8526 E_long   = -17418291.6614 Press    =       -17.5787 
Volume   =  19744613.0345 
---------------- Step     7850 ----- CPU =   4355.2777 (sec) ----------------
TotEng   =  -1618852.9767 KinEng   =   1376004.9736 Temp     =       299.7978 
PotEng   =  -2994857.9503 E_bond   =    166255.3080 E_angle  =    711449.6684 
E_dihed  =    337028.0614 E_impro  =     14385.8759 E_vdwl   =   -131264.0588 
E_coul   =  13325565.8315 E_long   = -17418278.6367 Press    =       -75.6912 
Volume   =  19743465.7032 
---------------- Step     7900 ----- CPU =   4382.6674 (sec) ----------------
TotEng   =  -1618359.1839 KinEng   =   1378291.9295 Temp     =       300.2961 
PotEng   =  -2996651.1134 E_bond   =    165956.2161 E_angle  =    710238.2043 
E_dihed  =    337402.8292 E_impro  =     14534.5247 E_vdwl   =   -131146.1083 
E_coul   =  13324643.6623 E_long   = -17418280.4417 Press    =        -1.3080 
Volume   =  19741574.8985 
---------------- Step     7950 ----- CPU =   4410.6189 (sec) ----------------
TotEng   =  -1619227.4809 KinEng   =   1376713.6686 Temp     =       299.9522 
PotEng   =  -2995941.1496 E_bond   =    166296.3529 E_angle  =    711278.4750 
E_dihed  =    337036.3658 E_impro  =     14438.5479 E_vdwl   =   -132249.7976 
E_coul   =  13325668.8279 E_long   = -17418409.9216 Press    =        -1.4482 
Volume   =  19739198.2975 
---------------- Step     8000 ----- CPU =   4438.6271 (sec) ----------------
TotEng   =  -1620893.9445 KinEng   =   1376153.2813 Temp     =       299.8301 
PotEng   =  -2997047.2258 E_bond   =    165774.8370 E_angle  =    710841.1899 
E_dihed  =    337395.6461 E_impro  =     14400.7468 E_vdwl   =   -130192.9852 
E_coul   =  13323093.8855 E_long   = -17418360.5459 Press    =        40.0263 
Volume   =  19736229.2102 
---------------- Step     8050 ----- CPU =   4466.5690 (sec) ----------------
TotEng   =  -1622476.7638 KinEng   =   1376868.1184 Temp     =       299.9859 
PotEng   =  -2999344.8822 E_bond   =    165914.0109 E_angle  =    710245.0779 
E_dihed  =    337041.0996 E_impro  =     14367.1786 E_vdwl   =   -131281.0496 
E_coul   =  13322816.4996 E_long   = -17418447.6992 Press    =       -38.8686 
Volume   =  19734510.1764 
---------------- Step     8100 ----- CPU =   4494.0007 (sec) ----------------
TotEng   =  -1622566.1908 KinEng   =   1376497.4160 Temp     =       299.9051 
PotEng   =  -2999063.6068 E_bond   =    166158.3048 E_angle  =    710121.7088 
E_dihed  =    336949.9061 E_impro  =     14423.7875 E_vdwl   =   -131563.7233 
E_coul   =  13323308.8362 E_long   = -17418462.4269 Press    =       -13.9497 
Volume   =  19733692.6320 
---------------- Step     8150 ----- CPU =   4521.9774 (sec) ----------------
TotEng   =  -1621096.5646 KinEng   =   1375327.0110 Temp     =       299.6501 
PotEng   =  -2996423.5756 E_bond   =    166432.0634 E_angle  =    710393.1265 
E_dihed  =    337218.4217 E_impro  =     14547.5494 E_vdwl   =   -130052.7074 
E_coul   =  13323334.0755 E_long   = -17418296.1047 Press    =       -28.5557 
Volume   =  19733552.2790 
---------------- Step     8200 ----- CPU =   4549.4406 (sec) ----------------
TotEng   =  -1619385.4640 KinEng   =   1378314.7375 Temp     =       300.3010 
PotEng   =  -2997700.2015 E_bond   =    165900.1483 E_angle  =    711266.5715 
E_dihed  =    337133.5611 E_impro  =     14284.0429 E_vdwl   =   -130680.6954 
E_coul   =  13322811.5683 E_long   = -17418415.3981 Press    =        -8.7857 
Volume   =  19734043.3464 
---------------- Step     8250 ----- CPU =   4577.4322 (sec) ----------------
TotEng   =  -1619230.1883 KinEng   =   1375519.9849 Temp     =       299.6921 
PotEng   =  -2994750.1733 E_bond   =    166358.7038 E_angle  =    712588.0566 
E_dihed  =    336603.3644 E_impro  =     14473.4880 E_vdwl   =   -132017.6014 
E_coul   =  13325648.0385 E_long   = -17418404.2232 Press    =       -43.5745 
Volume   =  19733588.6612 
---------------- Step     8300 ----- CPU =   4604.8405 (sec) ----------------
TotEng   =  -1620122.1216 KinEng   =   1376867.6837 Temp     =       299.9858 
PotEng   =  -2996989.8052 E_bond   =    166102.6993 E_angle  =    710714.6571 
E_dihed  =    336764.0570 E_impro  =     14479.5270 E_vdwl   =   -131097.2129 
E_coul   =  13324401.6413 E_long   = -17418355.1740 Press    =       -27.0125 
Volume   =  19732455.7134 
---------------- Step     8350 ----- CPU =   4632.7880 (sec) ----------------
TotEng   =  -1621759.8756 KinEng   =   1375753.5354 Temp     =       299.7430 
PotEng   =  -2997513.4110 E_bond   =    166457.1757 E_angle  =    711352.7722 
E_dihed  =    336796.2278 E_impro  =     14423.1203 E_vdwl   =   -132818.5661 
E_coul   =  13324614.6264 E_long   = -17418338.7673 Press    =       -26.1461 
Volume   =  19730846.8824 
---------------- Step     8400 ----- CPU =   4660.2353 (sec) ----------------
TotEng   =  -1622159.4278 KinEng   =   1375139.9686 Temp     =       299.6093 
PotEng   =  -2997299.3964 E_bond   =    166199.1226 E_angle  =    709976.6952 
E_dihed  =    336891.2745 E_impro  =     14316.7429 E_vdwl   =   -130364.2767 
E_coul   =  13324121.1673 E_long   = -17418440.1221 Press    =         8.8708 
Volume   =  19729345.4579 
---------------- Step     8450 ----- CPU =   4688.2533 (sec) ----------------
TotEng   =  -1621716.7906 KinEng   =   1377529.9932 Temp     =       300.1301 
PotEng   =  -2999246.7838 E_bond   =    165847.8801 E_angle  =    711413.2131 
E_dihed  =    336740.6875 E_impro  =     14319.3969 E_vdwl   =   -131403.8667 
E_coul   =  13322275.7533 E_long   = -17418439.8480 Press    =        26.9366 
Volume   =  19729207.4132 
---------------- Step     8500 ----- CPU =   4716.2557 (sec) ----------------
TotEng   =  -1621542.5724 KinEng   =   1376445.0516 Temp     =       299.8937 
PotEng   =  -2997987.6240 E_bond   =    166206.7897 E_angle  =    710613.0794 
E_dihed  =    336842.5692 E_impro  =     14588.3866 E_vdwl   =   -132674.7439 
E_coul   =  13324839.4865 E_long   = -17418403.1916 Press    =       -51.1201 
Volume   =  19729696.2349 
---------------- Step     8550 ----- CPU =   4743.6653 (sec) ----------------
TotEng   =  -1621437.9642 KinEng   =   1377370.7444 Temp     =       300.0954 
PotEng   =  -2998808.7087 E_bond   =    166910.4313 E_angle  =    710539.0640 
E_dihed  =    337105.5606 E_impro  =     14425.1269 E_vdwl   =   -131592.0729 
E_coul   =  13322262.2992 E_long   = -17418459.1178 Press    =       -66.7938 
Volume   =  19730405.9345 
---------------- Step     8600 ----- CPU =   4771.6680 (sec) ----------------
TotEng   =  -1621092.7050 KinEng   =   1377331.7809 Temp     =       300.0869 
PotEng   =  -2998424.4860 E_bond   =    166082.1062 E_angle  =    710796.8486 
E_dihed  =    336441.3817 E_impro  =     14423.9173 E_vdwl   =   -130837.9466 
E_coul   =  13323194.7761 E_long   = -17418525.5693 Press    =       -15.0862 
Volume   =  19731764.0652 
---------------- Step     8650 ----- CPU =   4799.6437 (sec) ----------------
TotEng   =  -1621097.5341 KinEng   =   1375813.1022 Temp     =       299.7560 
PotEng   =  -2996910.6363 E_bond   =    165821.5622 E_angle  =    711409.5322 
E_dihed  =    336927.7395 E_impro  =     14449.9512 E_vdwl   =   -130354.6054 
E_coul   =  13323238.2574 E_long   = -17418403.0734 Press    =       -21.1075 
Volume   =  19733344.6437 
---------------- Step     8700 ----- CPU =   4827.6159 (sec) ----------------
TotEng   =  -1620739.6328 KinEng   =   1377288.2275 Temp     =       300.0774 
PotEng   =  -2998027.8603 E_bond   =    166064.3849 E_angle  =    710393.7416 
E_dihed  =    337436.9464 E_impro  =     14375.8437 E_vdwl   =   -131250.2114 
E_coul   =  13323382.8389 E_long   = -17418431.4043 Press    =       -10.3086 
Volume   =  19734216.6316 
---------------- Step     8750 ----- CPU =   4855.0021 (sec) ----------------
TotEng   =  -1619693.3648 KinEng   =   1376624.0561 Temp     =       299.9327 
PotEng   =  -2996317.4209 E_bond   =    166101.9773 E_angle  =    711738.8190 
E_dihed  =    336974.9146 E_impro  =     14416.3761 E_vdwl   =   -133262.0695 
E_coul   =  13326073.9601 E_long   = -17418361.3985 Press    =       -34.6550 
Volume   =  19735501.5757 
---------------- Step     8800 ----- CPU =   4882.9777 (sec) ----------------
TotEng   =  -1618843.1005 KinEng   =   1377866.8881 Temp     =       300.2035 
PotEng   =  -2996709.9886 E_bond   =    166176.4679 E_angle  =    711750.6312 
E_dihed  =    336634.8275 E_impro  =     14286.4073 E_vdwl   =   -130889.6330 
E_coul   =  13323764.5507 E_long   = -17418433.2401 Press    =        31.4721 
Volume   =  19734370.1074 
---------------- Step     8850 ----- CPU =   4910.9436 (sec) ----------------
TotEng   =  -1619287.5461 KinEng   =   1376726.6171 Temp     =       299.9550 
PotEng   =  -2996014.1631 E_bond   =    166182.2461 E_angle  =    711833.5633 
E_dihed  =    337142.9121 E_impro  =     14416.2343 E_vdwl   =   -131071.8925 
E_coul   =  13323986.5158 E_long   = -17418503.7421 Press    =        -6.1604 
Volume   =  19733712.0813 
---------------- Step     8900 ----- CPU =   4938.3906 (sec) ----------------
TotEng   =  -1621296.8608 KinEng   =   1376516.4428 Temp     =       299.9092 
PotEng   =  -2997813.3036 E_bond   =    165887.9805 E_angle  =    710879.9460 
E_dihed  =    336812.2601 E_impro  =     14365.1951 E_vdwl   =   -129845.3017 
E_coul   =  13322529.8128 E_long   = -17418443.1965 Press    =        -2.8549 
Volume   =  19733635.9096 
---------------- Step     8950 ----- CPU =   4966.3605 (sec) ----------------
TotEng   =  -1622532.5894 KinEng   =   1375060.8383 Temp     =       299.5921 
PotEng   =  -2997593.4277 E_bond   =    165751.8491 E_angle  =    711114.1229 
E_dihed  =    337066.1587 E_impro  =     14440.4157 E_vdwl   =   -131711.1208 
E_coul   =  13324165.9609 E_long   = -17418420.8142 Press    =       -80.8333 
Volume   =  19733607.0347 
---------------- Step     9000 ----- CPU =   4993.7773 (sec) ----------------
TotEng   =  -1620553.6393 KinEng   =   1377850.9205 Temp     =       300.2000 
PotEng   =  -2998404.5599 E_bond   =    166279.9472 E_angle  =    709551.4395 
E_dihed  =    336940.8052 E_impro  =     14422.6332 E_vdwl   =   -131276.6832 
E_coul   =  13324135.9602 E_long   = -17418458.6619 Press    =       -32.2783 
Volume   =  19734181.2290 
---------------- Step     9050 ----- CPU =   5021.7624 (sec) ----------------
TotEng   =  -1617971.3211 KinEng   =   1378470.8366 Temp     =       300.3350 
PotEng   =  -2996442.1577 E_bond   =    165955.5602 E_angle  =    711673.8060 
E_dihed  =    336791.1013 E_impro  =     14392.9695 E_vdwl   =   -130722.1090 
E_coul   =  13323899.1487 E_long   = -17418432.6345 Press    =         3.8927 
Volume   =  19734692.5339 
---------------- Step     9100 ----- CPU =   5049.1697 (sec) ----------------
TotEng   =  -1618071.5054 KinEng   =   1378722.9865 Temp     =       300.3900 
PotEng   =  -2996794.4919 E_bond   =    166149.9695 E_angle  =    712328.8206 
E_dihed  =    336954.1275 E_impro  =     14473.7373 E_vdwl   =   -132230.2543 
E_coul   =  13324006.9653 E_long   = -17418477.8578 Press    =       -48.6457 
Volume   =  19735394.6086 
---------------- Step     9150 ----- CPU =   5077.1229 (sec) ----------------
TotEng   =  -1620653.2385 KinEng   =   1376467.2933 Temp     =       299.8985 
PotEng   =  -2997120.5318 E_bond   =    166060.2789 E_angle  =    711761.6174 
E_dihed  =    336943.1851 E_impro  =     14343.4459 E_vdwl   =   -130930.7793 
E_coul   =  13323049.9591 E_long   = -17418348.2389 Press    =       -34.9520 
Volume   =  19735496.5681 
---------------- Step     9200 ----- CPU =   5105.0615 (sec) ----------------
TotEng   =  -1622130.9104 KinEng   =   1376039.0816 Temp     =       299.8052 
PotEng   =  -2998169.9920 E_bond   =    165878.4296 E_angle  =    711699.1562 
E_dihed  =    337021.0650 E_impro  =     14396.4126 E_vdwl   =   -131795.9775 
E_coul   =  13322948.7424 E_long   = -17418317.8202 Press    =       -14.8878 
Volume   =  19734479.6962 
---------------- Step     9250 ----- CPU =   5133.0504 (sec) ----------------
TotEng   =  -1621909.0548 KinEng   =   1376828.6826 Temp     =       299.9773 
PotEng   =  -2998737.7374 E_bond   =    166307.6803 E_angle  =    711174.1723 
E_dihed  =    336981.3242 E_impro  =     14338.8402 E_vdwl   =   -130552.8404 
E_coul   =  13321341.2523 E_long   = -17418328.1662 Press    =       -31.3955 
Volume   =  19732040.7691 
---------------- Step     9300 ----- CPU =   5160.4534 (sec) ----------------
TotEng   =  -1621613.6421 KinEng   =   1377779.5751 Temp     =       300.1844 
PotEng   =  -2999393.2172 E_bond   =    166078.6691 E_angle  =    710621.1540 
E_dihed  =    336771.8633 E_impro  =     14377.5725 E_vdwl   =   -131314.2215 
E_coul   =  13322454.0932 E_long   = -17418382.3478 Press    =       -29.7142 
Volume   =  19728694.3900 
---------------- Step     9350 ----- CPU =   5188.4094 (sec) ----------------
TotEng   =  -1621320.2837 KinEng   =   1377317.3793 Temp     =       300.0837 
PotEng   =  -2998637.6629 E_bond   =    166285.9477 E_angle  =    710612.3826 
E_dihed  =    337131.9001 E_impro  =     14419.0059 E_vdwl   =   -130418.0766 
E_coul   =  13321617.7352 E_long   = -17418286.5578 Press    =        -3.2446 
Volume   =  19726034.8358 
---------------- Step     9400 ----- CPU =   5215.8396 (sec) ----------------
TotEng   =  -1621299.3528 KinEng   =   1376719.8800 Temp     =       299.9536 
PotEng   =  -2998019.2328 E_bond   =    166085.8924 E_angle  =    711893.1477 
E_dihed  =    336651.3269 E_impro  =     14466.5288 E_vdwl   =   -131250.8568 
E_coul   =  13322519.0239 E_long   = -17418384.2957 Press    =         2.3889 
Volume   =  19724734.9304 
---------------- Step     9450 ----- CPU =   5243.8075 (sec) ----------------
TotEng   =  -1621920.9727 KinEng   =   1377070.1550 Temp     =       300.0299 
PotEng   =  -2998991.1277 E_bond   =    166256.0700 E_angle  =    710700.9182 
E_dihed  =    337104.4578 E_impro  =     14406.9442 E_vdwl   =   -129134.2334 
E_coul   =  13320105.4094 E_long   = -17418430.6941 Press    =        -8.7630 
Volume   =  19724050.6896 
---------------- Step     9500 ----- CPU =   5271.2094 (sec) ----------------
TotEng   =  -1622151.5236 KinEng   =   1376984.3887 Temp     =       300.0112 
PotEng   =  -2999135.9122 E_bond   =    165641.7965 E_angle  =    711973.4471 
E_dihed  =    336474.3669 E_impro  =     14317.7375 E_vdwl   =   -129364.3809 
E_coul   =  13320181.3942 E_long   = -17418360.2735 Press    =         1.0723 
Volume   =  19725309.0310 
---------------- Step     9550 ----- CPU =   5299.2135 (sec) ----------------
TotEng   =  -1622196.0286 KinEng   =   1376401.8303 Temp     =       299.8843 
PotEng   =  -2998597.8589 E_bond   =    166091.4366 E_angle  =    710902.0853 
E_dihed  =    336840.3563 E_impro  =     14520.8622 E_vdwl   =   -131894.9439 
E_coul   =  13323351.6331 E_long   = -17418409.2885 Press    =       -34.1507 
Volume   =  19728457.6454 
---------------- Step     9600 ----- CPU =   5326.6175 (sec) ----------------
TotEng   =  -1621457.4929 KinEng   =   1376861.9268 Temp     =       299.9845 
PotEng   =  -2998319.4197 E_bond   =    166147.6931 E_angle  =    711634.5305 
E_dihed  =    336712.7908 E_impro  =     14339.6574 E_vdwl   =   -131178.5150 
E_coul   =  13322488.1528 E_long   = -17418463.7293 Press    =        23.7108 
Volume   =  19731417.3511 
---------------- Step     9650 ----- CPU =   5354.5229 (sec) ----------------
TotEng   =  -1620750.5500 KinEng   =   1377571.2934 Temp     =       300.1391 
PotEng   =  -2998321.8434 E_bond   =    165995.9505 E_angle  =    711816.1513 
E_dihed  =    336508.5574 E_impro  =     14406.8877 E_vdwl   =   -131999.6339 
E_coul   =  13323377.3905 E_long   = -17418427.1469 Press    =       -11.0519 
Volume   =  19733683.6505 
---------------- Step     9700 ----- CPU =   5382.5000 (sec) ----------------
TotEng   =  -1620265.7595 KinEng   =   1376663.7219 Temp     =       299.9413 
PotEng   =  -2996929.4814 E_bond   =    165774.5988 E_angle  =    711809.8228 
E_dihed  =    336605.0276 E_impro  =     14360.2955 E_vdwl   =   -131777.4243 
E_coul   =  13324775.5126 E_long   = -17418477.3143 Press    =       -53.5329 
Volume   =  19735384.8491 
---------------- Step     9750 ----- CPU =   5410.4755 (sec) ----------------
TotEng   =  -1620151.3454 KinEng   =   1377935.7389 Temp     =       300.2185 
PotEng   =  -2998087.0843 E_bond   =    165647.1897 E_angle  =    712142.7317 
E_dihed  =    336890.0110 E_impro  =     14422.4606 E_vdwl   =   -131641.5926 
E_coul   =  13322792.7724 E_long   = -17418340.6570 Press    =        11.7412 
Volume   =  19734913.5567 
---------------- Step     9800 ----- CPU =   5437.8488 (sec) ----------------
TotEng   =  -1620686.7370 KinEng   =   1376656.6584 Temp     =       299.9398 
PotEng   =  -2997343.3955 E_bond   =    166377.7023 E_angle  =    712398.0407 
E_dihed  =    336830.6834 E_impro  =     14397.0145 E_vdwl   =   -131047.5543 
E_coul   =  13322112.0790 E_long   = -17418411.3611 Press    =        -0.3028 
Volume   =  19732629.7561 
---------------- Step     9850 ----- CPU =   5465.8086 (sec) ----------------
TotEng   =  -1622358.8459 KinEng   =   1376550.9945 Temp     =       299.9168 
PotEng   =  -2998909.8404 E_bond   =    165546.3990 E_angle  =    711717.4757 
E_dihed  =    336713.0004 E_impro  =     14438.8825 E_vdwl   =   -130369.7074 
E_coul   =  13321442.8368 E_long   = -17418398.7273 Press    =         7.1394 
Volume   =  19731135.4870 
---------------- Step     9900 ----- CPU =   5493.7682 (sec) ----------------
TotEng   =  -1623611.0318 KinEng   =   1376749.4769 Temp     =       299.9600 
PotEng   =  -3000360.5087 E_bond   =    165662.3465 E_angle  =    711761.2072 
E_dihed  =    336744.3369 E_impro  =     14446.6166 E_vdwl   =   -131587.6552 
E_coul   =  13320934.8513 E_long   = -17418322.2120 Press    =       -28.1835 
Volume   =  19729593.8567 
---------------- Step     9950 ----- CPU =   5521.2159 (sec) ----------------
TotEng   =  -1623959.2496 KinEng   =   1375813.9657 Temp     =       299.7562 
PotEng   =  -2999773.2154 E_bond   =    165924.1178 E_angle  =    711903.7871 
E_dihed  =    336906.2607 E_impro  =     14424.4871 E_vdwl   =   -131108.7297 
E_coul   =  13320701.2386 E_long   = -17418524.3768 Press    =       -24.3111 
Volume   =  19728450.3622 
---------------- Step    10000 ----- CPU =   5549.1795 (sec) ----------------
TotEng   =  -1622814.6252 KinEng   =   1376574.4903 Temp     =       299.9219 
PotEng   =  -2999389.1155 E_bond   =    166016.5093 E_angle  =    711251.3761 
E_dihed  =    336772.2487 E_impro  =     14373.0407 E_vdwl   =   -129635.9950 
E_coul   =  13320189.4206 E_long   = -17418355.7160 Press    =        10.6307 
Volume   =  19727237.7162 
Loop time of 5549.18 on 8 procs for 10000 steps with 2048000 atoms

Performance: 0.311 ns/day, 77.072 hours/ns, 1.802 timesteps/s
99.6% CPU use with 8 MPI tasks x 1 OpenMP threads

MPI task timing breakdown:
Section |  min time  |  avg time  |  max time  |%varavg| %total
---------------------------------------------------------------
Pair    | 3487.7     | 3504.8     | 3540.1     |  25.2 | 63.16
Bond    | 224.58     | 226.68     | 229.06     |   8.7 |  4.08
Kspace  | 536.41     | 569.43     | 587.87     |  60.0 | 10.26
Neigh   | 512.87     | 513.21     | 513.54     |   1.0 |  9.25
Comm    | 235.54     | 236        | 236.67     |   2.0 |  4.25
Output  | 0.093472   | 0.095746   | 0.097814   |   0.4 |  0.00
Modify  | 479.75     | 480.94     | 482.19     |   3.5 |  8.67
Other   |            | 18         |            |       |  0.32

Nlocal:         256000 ave      256263 max      255717 min
Histogram: 1 0 0 2 0 2 2 0 0 1
Nghost:         163377 ave      163580 max      163232 min
Histogram: 2 1 0 0 3 0 0 1 0 1
Neighs:    9.61907e+07 ave 9.65119e+07 max 9.60093e+07 min
Histogram: 2 2 1 0 0 0 2 0 0 1

Total # of neighbors = 7.6952571e+08
Ave neighs/atom = 375.74497
Ave special neighs/atom = 7.431875
Neighbor list builds = 1326
Dangerous builds = 0
Total wall time: 1:32:31
Intel(R) VTune(TM) Profiler 2022.2.0 collection completed successfully. Use the "aps --report /home/ubuntu/lammps/bench/aps_result_20220704" command to generate textual and HTML reports for the profiling session.
