LAMMPS (7 Jan 2022)
  using 1 OpenMP thread(s) per MPI task
Reading data file ...
  orthogonal box = (-27.5 -38.5 -36.3646) to (27.5 38.5 36.3615)
  4 by 4 by 4 MPI processor grid
  reading atoms ...
  32000 atoms
  reading velocities ...
  32000 velocities
  scanning bonds ...
  4 = max bonds/atom
  scanning angles ...
  8 = max angles/atom
  scanning dihedrals ...
  18 = max dihedrals/atom
  scanning impropers ...
  2 = max impropers/atom
  reading bonds ...
  27723 bonds
  reading angles ...
  40467 angles
  reading dihedrals ...
  56829 dihedrals
  reading impropers ...
  1034 impropers
Finding 1-2 1-3 1-4 neighbors ...
  special bond factors lj:    0        0        0       
  special bond factors coul:  0        0        0       
     4 = max # of 1-2 neighbors
    12 = max # of 1-3 neighbors
    24 = max # of 1-4 neighbors
    26 = max # of special neighbors
  special bonds CPU = 0.016 seconds
  read_data CPU = 0.221 seconds
Replicating atoms ...
  orthogonal box = (-27.5 -38.5 -36.3646) to (137.5 192.5 181.8137)
  4 by 4 by 4 MPI processor grid
  864000 atoms
  748521 bonds
  1092609 angles
  1534383 dihedrals
  27918 impropers
Finding 1-2 1-3 1-4 neighbors ...
  special bond factors lj:    0        0        0       
  special bond factors coul:  0        0        0       
     4 = max # of 1-2 neighbors
    12 = max # of 1-3 neighbors
    24 = max # of 1-4 neighbors
    26 = max # of special neighbors
  special bonds CPU = 0.030 seconds
  replicate CPU = 0.063 seconds
Finding SHAKE clusters ...
   43659 = # of size 2 clusters
   98091 = # of size 3 clusters
   20169 = # of size 4 clusters
  114291 = # of frozen angles
  find clusters CPU = 0.012 seconds
PPPM initialization ...
  using 12-bit tables for long-range coulomb (../kspace.cpp:340)
  G vector (1/distance) = 0.25235202
  grid = 72 90 90
  stencil order = 7
  estimated absolute RMS force accuracy = 0.029803316
  estimated relative force accuracy = 8.9751802e-05
  using single precision MKL FFT
  3d grid and FFT values/proc = 22500 12960
----------------------------------------------------------
Using INTEL Package without Coprocessor.
Compiler: Intel Classic C++ 20.21.5 / Intel(R) C++ g++ 9.3 mode
SIMD compiler directives: Enabled
Precision: mixed
----------------------------------------------------------
  generated 2278 of 2278 mixed pair_coeff terms from arithmetic mixing rule
Neighbor list info ...
  update every 1 steps, delay 5 steps, check yes
  max neighbors/atom: 2000, page size: 100000
  master list distance cutoff = 12
  ghost atom cutoff = 12
  binsize = 6, bins = 28 39 37
  1 neighbor lists, perpetual/occasional/extra = 1 0 0
  (1) pair lj/charmm/coul/long/intel, perpetual
      attributes: half, newton on, intel
      pair build: half/bin/newton/intel
      stencil: half/bin/3d
      bin: intel
Setting up Verlet run ...
  Unit style    : real
  Current step  : 0
  Time step     : 2
Per MPI rank memory allocation (min/avg/max) = 171.4 | 173.5 | 175 Mbytes
---------------- Step        0 ----- CPU =      0.0000 (sec) ----------------
TotEng   =   -684670.9763 KinEng   =    579010.4447 Temp     =       299.0277 
PotEng   =  -1263681.4210 E_bond   =     68525.6859 E_angle  =    294877.1223 
E_dihed  =    140718.2350 E_impro  =      5764.8965 E_vdwl   =    -62312.3838 
E_coul   =   5692538.4975 E_long   =  -7403793.4744 Press    =      -148.6879 
Volume   =   8315865.9045 
---------------- Step       50 ----- CPU =      2.0718 (sec) ----------------
TotEng   =   -683945.7621 KinEng   =    580525.9615 Temp     =       299.8104 
PotEng   =  -1264471.7236 E_bond   =     66737.4230 E_angle  =    292591.4771 
E_dihed  =    141470.6054 E_impro  =      6132.4086 E_vdwl   =    -53811.2295 
E_coul   =   5686392.7572 E_long   =  -7403985.1653 Press    =       238.9181 
Volume   =   8316862.5487 
---------------- Step      100 ----- CPU =      4.1240 (sec) ----------------
TotEng   =   -682828.1168 KinEng   =    582915.1903 Temp     =       301.0443 
PotEng   =  -1265743.3071 E_bond   =     69335.2194 E_angle  =    291121.4605 
E_dihed  =    140366.2158 E_impro  =      5852.7123 E_vdwl   =    -51271.2555 
E_coul   =   5682697.0993 E_long   =  -7403844.7588 Press    =        14.5818 
Volume   =   8319656.0679 
---------------- Step      150 ----- CPU =      6.0873 (sec) ----------------
TotEng   =   -681934.5356 KinEng   =    581470.6393 Temp     =       300.2983 
PotEng   =  -1263405.1748 E_bond   =     69034.7422 E_angle  =    293077.0149 
E_dihed  =    142143.1050 E_impro  =      5481.5280 E_vdwl   =    -56003.8142 
E_coul   =   5686435.1859 E_long   =  -7403572.9366 Press    =       244.1786 
Volume   =   8330011.8630 
---------------- Step      200 ----- CPU =      8.0484 (sec) ----------------
TotEng   =   -677044.6896 KinEng   =    581663.5531 Temp     =       300.3979 
PotEng   =  -1258708.2427 E_bond   =     67217.2491 E_angle  =    299059.3118 
E_dihed  =    140985.4797 E_impro  =      6276.3733 E_vdwl   =    -58008.2243 
E_coul   =   5689305.5775 E_long   =  -7403544.0096 Press    =        40.8232 
Volume   =   8342999.9687 
---------------- Step      250 ----- CPU =      9.9758 (sec) ----------------
TotEng   =   -673905.3089 KinEng   =    581419.2852 Temp     =       300.2717 
PotEng   =  -1255324.5941 E_bond   =     68622.6981 E_angle  =    299579.9578 
E_dihed  =    141628.4484 E_impro  =      5762.6543 E_vdwl   =    -58456.0357 
E_coul   =   5691551.2517 E_long   =  -7404013.5686 Press    =      -156.3975 
Volume   =   8353619.7170 
---------------- Step      300 ----- CPU =     11.9439 (sec) ----------------
TotEng   =   -675761.3969 KinEng   =    581024.0395 Temp     =       300.0676 
PotEng   =  -1256785.4364 E_bond   =     69144.0267 E_angle  =    294992.0540 
E_dihed  =    140986.8097 E_impro  =      6061.0296 E_vdwl   =    -58741.5396 
E_coul   =   5694395.9242 E_long   =  -7403623.7411 Press    =      -387.7844 
Volume   =   8362037.3828 
---------------- Step      350 ----- CPU =     13.8696 (sec) ----------------
TotEng   =   -678684.6449 KinEng   =    582960.2857 Temp     =       301.0676 
PotEng   =  -1261644.9305 E_bond   =     69684.9480 E_angle  =    295879.9242 
E_dihed  =    141866.9367 E_impro  =      5646.0842 E_vdwl   =    -55469.8444 
E_coul   =   5684724.4278 E_long   =  -7403977.4070 Press    =      -329.1281 
Volume   =   8365834.3400 
---------------- Step      400 ----- CPU =     15.8845 (sec) ----------------
TotEng   =   -682542.9726 KinEng   =    578551.3412 Temp     =       298.7906 
PotEng   =  -1261094.3138 E_bond   =     68679.6811 E_angle  =    295002.1341 
E_dihed  =    140867.4383 E_impro  =      5798.8150 E_vdwl   =    -53556.6431 
E_coul   =   5685826.1327 E_long   =  -7403711.8719 Press    =       270.4353 
Volume   =   8366854.5944 
---------------- Step      450 ----- CPU =     17.8536 (sec) ----------------
TotEng   =   -684267.2222 KinEng   =    579100.2029 Temp     =       299.0741 
PotEng   =  -1263367.4252 E_bond   =     67162.8037 E_angle  =    294407.9915 
E_dihed  =    142316.8094 E_impro  =      6054.0497 E_vdwl   =    -60186.2750 
E_coul   =   5690606.4123 E_long   =  -7403729.2167 Press    =       149.5931 
Volume   =   8368837.9497 
---------------- Step      500 ----- CPU =     19.8653 (sec) ----------------
TotEng   =   -678494.1764 KinEng   =    581396.6648 Temp     =       300.2601 
PotEng   =  -1259890.8412 E_bond   =     69867.0683 E_angle  =    294650.0364 
E_dihed  =    141495.6777 E_impro  =      5866.5030 E_vdwl   =    -58400.8493 
E_coul   =   5690207.4765 E_long   =  -7403576.7538 Press    =      -205.0736 
Volume   =   8369756.4676 
---------------- Step      550 ----- CPU =     21.8400 (sec) ----------------
TotEng   =   -672323.3935 KinEng   =    584493.8766 Temp     =       301.8596 
PotEng   =  -1256817.2701 E_bond   =     68833.8808 E_angle  =    296427.0897 
E_dihed  =    140501.6002 E_impro  =      6480.9791 E_vdwl   =    -56471.8536 
E_coul   =   5691140.8854 E_long   =  -7403729.8517 Press    =       373.1839 
Volume   =   8369992.7012 
---------------- Step      600 ----- CPU =     23.8110 (sec) ----------------
TotEng   =   -671256.9972 KinEng   =    585387.0288 Temp     =       302.3209 
PotEng   =  -1256644.0259 E_bond   =     67924.9731 E_angle  =    297505.0910 
E_dihed  =    142180.7135 E_impro  =      6080.4221 E_vdwl   =    -58907.6581 
E_coul   =   5692300.9807 E_long   =  -7403728.5481 Press    =       110.5497 
Volume   =   8373374.9974 
---------------- Step      650 ----- CPU =     25.8265 (sec) ----------------
TotEng   =   -676062.4261 KinEng   =    581609.1039 Temp     =       300.3698 
PotEng   =  -1257671.5301 E_bond   =     68330.4239 E_angle  =    293570.4386 
E_dihed  =    141556.9863 E_impro  =      5721.2337 E_vdwl   =    -57683.8314 
E_coul   =   5694452.8032 E_long   =  -7403619.5843 Press    =      -188.8452 
Volume   =   8376645.7701 
---------------- Step      700 ----- CPU =     27.8054 (sec) ----------------
TotEng   =   -679353.8130 KinEng   =    580783.0189 Temp     =       299.9431 
PotEng   =  -1260136.8319 E_bond   =     67102.9842 E_angle  =    296023.0781 
E_dihed  =    141449.2151 E_impro  =      5662.8008 E_vdwl   =    -59172.7672 
E_coul   =   5692553.3311 E_long   =  -7403755.4740 Press    =       181.7639 
Volume   =   8378210.7484 
---------------- Step      750 ----- CPU =     29.8209 (sec) ----------------
TotEng   =   -679260.2508 KinEng   =    578609.0828 Temp     =       298.8204 
PotEng   =  -1257869.3336 E_bond   =     69080.6925 E_angle  =    297375.7293 
E_dihed  =    141884.4120 E_impro  =      5706.9020 E_vdwl   =    -56462.4887 
E_coul   =   5688322.0358 E_long   =  -7403776.6166 Press    =        -6.0155 
Volume   =   8377520.5532 
---------------- Step      800 ----- CPU =     31.7986 (sec) ----------------
TotEng   =   -677202.0193 KinEng   =    580068.7136 Temp     =       299.5742 
PotEng   =  -1257270.7329 E_bond   =     67745.6583 E_angle  =    298474.1480 
E_dihed  =    142271.8229 E_impro  =      6017.6908 E_vdwl   =    -57310.8517 
E_coul   =   5689123.0889 E_long   =  -7403592.2901 Press    =       -50.7862 
Volume   =   8377098.8072 
---------------- Step      850 ----- CPU =     33.7738 (sec) ----------------
TotEng   =   -674231.3531 KinEng   =    581003.9390 Temp     =       300.0572 
PotEng   =  -1255235.2921 E_bond   =     68557.9280 E_angle  =    297092.6163 
E_dihed  =    141808.4993 E_impro  =      5812.1540 E_vdwl   =    -56699.8981 
E_coul   =   5691797.7670 E_long   =  -7403604.3586 Press    =       275.4119 
Volume   =   8372949.5026 
---------------- Step      900 ----- CPU =     35.7913 (sec) ----------------
TotEng   =   -672271.8971 KinEng   =    581838.4918 Temp     =       300.4882 
PotEng   =  -1254110.3889 E_bond   =     68364.6263 E_angle  =    296481.8550 
E_dihed  =    142375.1840 E_impro  =      6204.1746 E_vdwl   =    -55317.9100 
E_coul   =   5691472.4815 E_long   =  -7403690.8004 Press    =       217.6732 
Volume   =   8369453.5528 
---------------- Step      950 ----- CPU =     37.7703 (sec) ----------------
TotEng   =   -672811.4601 KinEng   =    580912.9721 Temp     =       300.0103 
PotEng   =  -1253724.4322 E_bond   =     69023.4196 E_angle  =    298379.7266 
E_dihed  =    143019.6250 E_impro  =      6470.6705 E_vdwl   =    -57744.4132 
E_coul   =   5690687.7142 E_long   =  -7403561.1749 Press    =      -158.7288 
Volume   =   8368195.3165 
---------------- Step     1000 ----- CPU =     39.7871 (sec) ----------------
TotEng   =   -675779.7675 KinEng   =    580680.1097 Temp     =       299.8900 
PotEng   =  -1256459.8772 E_bond   =     69786.0518 E_angle  =    297160.9440 
E_dihed  =    141735.5624 E_impro  =      5930.6752 E_vdwl   =    -57134.6673 
E_coul   =   5689675.4271 E_long   =  -7403613.8705 Press    =      -107.6757 
Volume   =   8366020.7171 
---------------- Step     1050 ----- CPU =     41.7641 (sec) ----------------
TotEng   =   -678387.3070 KinEng   =    578501.9808 Temp     =       298.7651 
PotEng   =  -1256889.2878 E_bond   =     68807.3369 E_angle  =    297846.9124 
E_dihed  =    141659.8717 E_impro  =      6101.0765 E_vdwl   =    -56983.3065 
E_coul   =   5689310.8546 E_long   =  -7403632.0334 Press    =       -51.2569 
Volume   =   8364819.5505 
---------------- Step     1100 ----- CPU =     43.7831 (sec) ----------------
TotEng   =   -678808.1677 KinEng   =    579331.6429 Temp     =       299.1936 
PotEng   =  -1258139.8107 E_bond   =     69488.8774 E_angle  =    296680.4261 
E_dihed  =    142373.2162 E_impro  =      6205.8892 E_vdwl   =    -59334.8595 
E_coul   =   5690249.3026 E_long   =  -7403802.6627 Press    =      -124.5516 
Volume   =   8363185.6759 
---------------- Step     1150 ----- CPU =     45.7673 (sec) ----------------
TotEng   =   -677069.9851 KinEng   =    580376.9036 Temp     =       299.7334 
PotEng   =  -1257446.8887 E_bond   =     68736.1783 E_angle  =    296622.6635 
E_dihed  =    142548.1583 E_impro  =      6014.1002 E_vdwl   =    -55896.7918 
E_coul   =   5688152.7440 E_long   =  -7403623.9412 Press    =       124.5067 
Volume   =   8358934.2457 
---------------- Step     1200 ----- CPU =     47.7877 (sec) ----------------
TotEng   =   -674754.4468 KinEng   =    582082.1367 Temp     =       300.6141 
PotEng   =  -1256836.5835 E_bond   =     69664.9763 E_angle  =    295562.3252 
E_dihed  =    142516.3955 E_impro  =      6076.2552 E_vdwl   =    -56338.5476 
E_coul   =   5689486.9397 E_long   =  -7403804.9277 Press    =        42.0224 
Volume   =   8355667.6019 
---------------- Step     1250 ----- CPU =     49.7755 (sec) ----------------
TotEng   =   -674477.6738 KinEng   =    582018.9733 Temp     =       300.5814 
PotEng   =  -1256496.6472 E_bond   =     69119.7471 E_angle  =    296764.1167 
E_dihed  =    142228.2071 E_impro  =      6051.0836 E_vdwl   =    -57087.1982 
E_coul   =   5690199.3248 E_long   =  -7403771.9284 Press    =       108.8175 
Volume   =   8355630.4521 
---------------- Step     1300 ----- CPU =     51.8042 (sec) ----------------
TotEng   =   -676239.4439 KinEng   =    581656.2453 Temp     =       300.3941 
PotEng   =  -1257895.6892 E_bond   =     69995.1983 E_angle  =    296483.1854 
E_dihed  =    142313.9457 E_impro  =      6225.5232 E_vdwl   =    -57652.0488 
E_coul   =   5688441.9510 E_long   =  -7403703.4439 Press    =      -246.5656 
Volume   =   8357212.3912 
---------------- Step     1350 ----- CPU =     53.7837 (sec) ----------------
TotEng   =   -678299.4423 KinEng   =    579385.4652 Temp     =       299.2214 
PotEng   =  -1257684.9075 E_bond   =     69556.8172 E_angle  =    296741.5804 
E_dihed  =    142299.9635 E_impro  =      6067.0937 E_vdwl   =    -56495.8010 
E_coul   =   5687811.9320 E_long   =  -7403666.4933 Press    =       -37.3296 
Volume   =   8358584.5500 
---------------- Step     1400 ----- CPU =     55.8052 (sec) ----------------
TotEng   =   -678821.3070 KinEng   =    579172.5814 Temp     =       299.1114 
PotEng   =  -1257993.8884 E_bond   =     69347.2816 E_angle  =    296540.7835 
E_dihed  =    142184.3103 E_impro  =      6097.0481 E_vdwl   =    -56911.3588 
E_coul   =   5688548.0925 E_long   =  -7403800.0456 Press    =       -12.2545 
Volume   =   8360168.8376 
---------------- Step     1450 ----- CPU =     57.7893 (sec) ----------------
TotEng   =   -677652.2393 KinEng   =    580778.0236 Temp     =       299.9406 
PotEng   =  -1258430.2629 E_bond   =     69381.3517 E_angle  =    296840.7212 
E_dihed  =    142295.0155 E_impro  =      5992.1949 E_vdwl   =    -57746.5554 
E_coul   =   5688506.5327 E_long   =  -7403699.5236 Press    =      -173.2599 
Volume   =   8361679.1657 
---------------- Step     1500 ----- CPU =     59.8099 (sec) ----------------
TotEng   =   -675789.6160 KinEng   =    581816.8687 Temp     =       300.4771 
PotEng   =  -1257606.4848 E_bond   =     69471.6875 E_angle  =    296714.7972 
E_dihed  =    142174.4634 E_impro  =      6091.1140 E_vdwl   =    -57495.7445 
E_coul   =   5689098.3641 E_long   =  -7403661.1666 Press    =       -18.3304 
Volume   =   8362429.8803 
---------------- Step     1550 ----- CPU =     61.7924 (sec) ----------------
TotEng   =   -674875.5639 KinEng   =    582474.4012 Temp     =       300.8167 
PotEng   =  -1257349.9651 E_bond   =     69309.9667 E_angle  =    297748.1321 
E_dihed  =    141572.4432 E_impro  =      6008.4327 E_vdwl   =    -57608.3538 
E_coul   =   5689343.5740 E_long   =  -7403724.1600 Press    =       -30.1870 
Volume   =   8363278.4440 
---------------- Step     1600 ----- CPU =     63.8141 (sec) ----------------
TotEng   =   -675926.8525 KinEng   =    581575.2594 Temp     =       300.3523 
PotEng   =  -1257502.1119 E_bond   =     68983.5910 E_angle  =    296902.9133 
E_dihed  =    141641.1854 E_impro  =      5791.4614 E_vdwl   =    -57495.3009 
E_coul   =   5690377.7397 E_long   =  -7403703.7019 Press    =        37.6139 
Volume   =   8364227.5467 
---------------- Step     1650 ----- CPU =     65.8032 (sec) ----------------
TotEng   =   -677600.0078 KinEng   =    580198.3977 Temp     =       299.6412 
PotEng   =  -1257798.4055 E_bond   =     69263.6195 E_angle  =    296664.5287 
E_dihed  =    141920.4641 E_impro  =      6064.2307 E_vdwl   =    -56281.4743 
E_coul   =   5688292.8464 E_long   =  -7403722.6206 Press    =         2.2436 
Volume   =   8364831.2271 
---------------- Step     1700 ----- CPU =     67.7878 (sec) ----------------
TotEng   =   -678144.1703 KinEng   =    579347.9390 Temp     =       299.2020 
PotEng   =  -1257492.1093 E_bond   =     69200.1119 E_angle  =    297468.4933 
E_dihed  =    141911.7077 E_impro  =      6085.1339 E_vdwl   =    -56378.3851 
E_coul   =   5688001.8026 E_long   =  -7403780.9734 Press    =       113.4690 
Volume   =   8365612.2892 
---------------- Step     1750 ----- CPU =     69.8095 (sec) ----------------
TotEng   =   -676983.7578 KinEng   =    581087.5326 Temp     =       300.1004 
PotEng   =  -1258071.2904 E_bond   =     69145.7354 E_angle  =    297102.2077 
E_dihed  =    142081.1136 E_impro  =      6092.8101 E_vdwl   =    -57402.6601 
E_coul   =   5688589.2863 E_long   =  -7403679.7834 Press    =       -71.7066 
Volume   =   8366441.7466 
---------------- Step     1800 ----- CPU =     71.7942 (sec) ----------------
TotEng   =   -675275.3813 KinEng   =    581253.3373 Temp     =       300.1860 
PotEng   =  -1256528.7186 E_bond   =     69550.8233 E_angle  =    297050.9540 
E_dihed  =    142024.8117 E_impro  =      6072.0285 E_vdwl   =    -57413.0042 
E_coul   =   5689909.1450 E_long   =  -7403723.4768 Press    =      -135.6955 
Volume   =   8366808.0694 
---------------- Step     1850 ----- CPU =     73.8154 (sec) ----------------
TotEng   =   -674772.9784 KinEng   =    581906.3038 Temp     =       300.5233 
PotEng   =  -1256679.2822 E_bond   =     69387.6141 E_angle  =    297427.2194 
E_dihed  =    142100.5233 E_impro  =      6120.5446 E_vdwl   =    -57454.7506 
E_coul   =   5689443.0987 E_long   =  -7403703.5316 Press    =        -5.4588 
Volume   =   8366899.1446 
---------------- Step     1900 ----- CPU =     75.7977 (sec) ----------------
TotEng   =   -675978.6935 KinEng   =    580491.1428 Temp     =       299.7924 
PotEng   =  -1256469.8363 E_bond   =     69559.3954 E_angle  =    297859.0561 
E_dihed  =    142255.7372 E_impro  =      6190.0173 E_vdwl   =    -56484.6860 
E_coul   =   5687856.4654 E_long   =  -7403705.8217 Press    =      -104.9516 
Volume   =   8366708.8601 
---------------- Step     1950 ----- CPU =     77.8205 (sec) ----------------
TotEng   =   -677982.5793 KinEng   =    580772.0024 Temp     =       299.9375 
PotEng   =  -1258754.5817 E_bond   =     69032.2839 E_angle  =    296758.1977 
E_dihed  =    142031.2367 E_impro  =      6026.0487 E_vdwl   =    -56755.3742 
E_coul   =   5687916.5528 E_long   =  -7403763.5274 Press    =       -15.6438 
Volume   =   8365617.4401 
---------------- Step     2000 ----- CPU =     79.8421 (sec) ----------------
TotEng   =   -679203.1894 KinEng   =    579885.4638 Temp     =       299.4796 
PotEng   =  -1259088.6532 E_bond   =     69378.9110 E_angle  =    296930.4908 
E_dihed  =    142159.7483 E_impro  =      6035.6409 E_vdwl   =    -57404.3002 
E_coul   =   5687494.6228 E_long   =  -7403683.7667 Press    =      -109.3219 
Volume   =   8363810.7326 
---------------- Step     2050 ----- CPU =     81.8227 (sec) ----------------
TotEng   =   -678848.5129 KinEng   =    581277.6878 Temp     =       300.1986 
PotEng   =  -1260126.2007 E_bond   =     68945.8046 E_angle  =    297127.1679 
E_dihed  =    141967.2615 E_impro  =      6140.0281 E_vdwl   =    -55910.7923 
E_coul   =   5685369.1589 E_long   =  -7403764.8293 Press    =        54.4056 
Volume   =   8361881.7755 
---------------- Step     2100 ----- CPU =     83.8005 (sec) ----------------
TotEng   =   -677917.4133 KinEng   =    580134.9027 Temp     =       299.6084 
PotEng   =  -1258052.3159 E_bond   =     69645.7028 E_angle  =    297182.1579 
E_dihed  =    142359.5157 E_impro  =      6065.4418 E_vdwl   =    -56109.1714 
E_coul   =   5686553.1324 E_long   =  -7403749.0952 Press    =       -66.5197 
Volume   =   8360057.6800 
---------------- Step     2150 ----- CPU =     85.8167 (sec) ----------------
TotEng   =   -677045.4539 KinEng   =    581094.1835 Temp     =       300.1038 
PotEng   =  -1258139.6374 E_bond   =     69152.8822 E_angle  =    297244.0673 
E_dihed  =    141956.1627 E_impro  =      5911.2363 E_vdwl   =    -56439.5861 
E_coul   =   5687739.2399 E_long   =  -7403703.6396 Press    =       -17.4157 
Volume   =   8358120.1837 
---------------- Step     2200 ----- CPU =     87.7989 (sec) ----------------
TotEng   =   -676783.9796 KinEng   =    581968.2002 Temp     =       300.5552 
PotEng   =  -1258752.1798 E_bond   =     68939.8047 E_angle  =    297473.0168 
E_dihed  =    142229.2997 E_impro  =      6090.9099 E_vdwl   =    -56539.8940 
E_coul   =   5686782.4343 E_long   =  -7403727.7511 Press    =        51.4318 
Volume   =   8356812.8289 
---------------- Step     2250 ----- CPU =     89.7803 (sec) ----------------
TotEng   =   -677403.7450 KinEng   =    580673.9850 Temp     =       299.8868 
PotEng   =  -1258077.7299 E_bond   =     69568.5900 E_angle  =    297612.9098 
E_dihed  =    142242.9328 E_impro  =      6070.0522 E_vdwl   =    -56914.2752 
E_coul   =   5687078.2427 E_long   =  -7403736.1822 Press    =       -40.8638 
Volume   =   8356299.1877 
---------------- Step     2300 ----- CPU =     91.8035 (sec) ----------------
TotEng   =   -678830.9989 KinEng   =    579492.4206 Temp     =       299.2766 
PotEng   =  -1258323.4195 E_bond   =     69779.8085 E_angle  =    297077.1430 
E_dihed  =    142370.3232 E_impro  =      6116.9747 E_vdwl   =    -56273.3531 
E_coul   =   5686335.7372 E_long   =  -7403730.0532 Press    =      -100.2061 
Volume   =   8355786.0544 
---------------- Step     2350 ----- CPU =     93.7886 (sec) ----------------
TotEng   =   -679477.0322 KinEng   =    581577.4928 Temp     =       300.3534 
PotEng   =  -1261054.5250 E_bond   =     69004.5750 E_angle  =    296779.7109 
E_dihed  =    141865.1946 E_impro  =      6001.9215 E_vdwl   =    -56555.4838 
E_coul   =   5685572.4801 E_long   =  -7403722.9233 Press    =        20.0917 
Volume   =   8355180.8258 
---------------- Step     2400 ----- CPU =     95.8116 (sec) ----------------
TotEng   =   -679368.9422 KinEng   =    580670.9372 Temp     =       299.8853 
PotEng   =  -1260039.8794 E_bond   =     69428.1636 E_angle  =    297148.2115 
E_dihed  =    142054.6803 E_impro  =      6089.3853 E_vdwl   =    -56301.1293 
E_coul   =   5685329.0268 E_long   =  -7403788.2176 Press    =       -45.1431 
Volume   =   8354667.6209 
---------------- Step     2450 ----- CPU =     97.7949 (sec) ----------------
TotEng   =   -679322.6399 KinEng   =    580103.6131 Temp     =       299.5923 
PotEng   =  -1259426.2530 E_bond   =     69239.3321 E_angle  =    297452.4922 
E_dihed  =    141995.6417 E_impro  =      6038.7133 E_vdwl   =    -55614.3878 
E_coul   =   5685195.1561 E_long   =  -7403733.2007 Press    =        -4.3758 
Volume   =   8353680.8647 
---------------- Step     2500 ----- CPU =     99.8214 (sec) ----------------
TotEng   =   -679136.3729 KinEng   =    580204.8882 Temp     =       299.6446 
PotEng   =  -1259341.2612 E_bond   =     69238.4633 E_angle  =    297130.9194 
E_dihed  =    142435.0579 E_impro  =      6119.2277 E_vdwl   =    -56760.0838 
E_coul   =   5686103.0740 E_long   =  -7403607.9196 Press    =       -74.1063 
Volume   =   8353430.8811 
---------------- Step     2550 ----- CPU =    101.8003 (sec) ----------------
TotEng   =   -678603.9982 KinEng   =    580885.5830 Temp     =       299.9961 
PotEng   =  -1259489.5812 E_bond   =     69532.3014 E_angle  =    297189.7020 
E_dihed  =    142090.2197 E_impro  =      6045.8347 E_vdwl   =    -56031.7615 
E_coul   =   5685404.7297 E_long   =  -7403720.6072 Press    =        -6.3290 
Volume   =   8352841.3159 
---------------- Step     2600 ----- CPU =    103.8219 (sec) ----------------
TotEng   =   -678132.0140 KinEng   =    581476.8970 Temp     =       300.3015 
PotEng   =  -1259608.9109 E_bond   =     69569.6858 E_angle  =    296850.7671 
E_dihed  =    142200.4204 E_impro  =      5943.6687 E_vdwl   =    -56727.3581 
E_coul   =   5686318.6350 E_long   =  -7403764.7299 Press    =      -111.0330 
Volume   =   8352196.9084 
---------------- Step     2650 ----- CPU =    105.8126 (sec) ----------------
TotEng   =   -677808.5786 KinEng   =    581198.0199 Temp     =       300.1575 
PotEng   =  -1259006.5985 E_bond   =     69600.0597 E_angle  =    297937.5614 
E_dihed  =    142400.7456 E_impro  =      5978.1228 E_vdwl   =    -56874.9125 
E_coul   =   5685808.2137 E_long   =  -7403856.3891 Press    =       -22.8405 
Volume   =   8351309.8013 
---------------- Step     2700 ----- CPU =    107.7959 (sec) ----------------
TotEng   =   -678716.6520 KinEng   =    580362.8434 Temp     =       299.7261 
PotEng   =  -1259079.4954 E_bond   =     69319.5015 E_angle  =    297277.3442 
E_dihed  =    142203.8619 E_impro  =      6066.1612 E_vdwl   =    -56260.8208 
E_coul   =   5686112.4466 E_long   =  -7403797.9900 Press    =        40.7248 
Volume   =   8349902.5586 
---------------- Step     2750 ----- CPU =    109.8187 (sec) ----------------
TotEng   =   -679472.9590 KinEng   =    581017.9552 Temp     =       300.0645 
PotEng   =  -1260490.9142 E_bond   =     69389.0446 E_angle  =    297373.4230 
E_dihed  =    142150.6514 E_impro  =      6084.0935 E_vdwl   =    -56827.5915 
E_coul   =   5685146.7726 E_long   =  -7403807.3077 Press    =        -0.1433 
Volume   =   8348426.9287 
---------------- Step     2800 ----- CPU =    111.8428 (sec) ----------------
TotEng   =   -679984.1284 KinEng   =    580561.6182 Temp     =       299.8288 
PotEng   =  -1260545.7466 E_bond   =     69100.0825 E_angle  =    298002.0216 
E_dihed  =    142105.4622 E_impro  =      6064.6626 E_vdwl   =    -56428.0031 
E_coul   =   5684398.8316 E_long   =  -7403788.8039 Press    =       -47.2721 
Volume   =   8347055.3139 
---------------- Step     2850 ----- CPU =    113.8291 (sec) ----------------
TotEng   =   -679834.9039 KinEng   =    580424.8221 Temp     =       299.7582 
PotEng   =  -1260259.7260 E_bond   =     69125.7444 E_angle  =    297362.1169 
E_dihed  =    142109.9071 E_impro  =      5985.4072 E_vdwl   =    -56118.1007 
E_coul   =   5685016.0507 E_long   =  -7403740.8515 Press    =        67.0580 
Volume   =   8345265.0308 
---------------- Step     2900 ----- CPU =    115.8539 (sec) ----------------
TotEng   =   -678855.6949 KinEng   =    580702.2493 Temp     =       299.9014 
PotEng   =  -1259557.9442 E_bond   =     69179.8678 E_angle  =    298079.0769 
E_dihed  =    142276.0908 E_impro  =      6122.6065 E_vdwl   =    -56130.4616 
E_coul   =   5684655.6163 E_long   =  -7403740.7408 Press    =        31.2823 
Volume   =   8344210.7552 
---------------- Step     2950 ----- CPU =    117.8404 (sec) ----------------
TotEng   =   -678279.2598 KinEng   =    580380.6448 Temp     =       299.7353 
PotEng   =  -1258659.9046 E_bond   =     69567.7232 E_angle  =    298165.6640 
E_dihed  =    142187.0651 E_impro  =      6046.1427 E_vdwl   =    -55077.0528 
E_coul   =   5684175.0970 E_long   =  -7403724.5438 Press    =        14.4315 
Volume   =   8344041.6728 
---------------- Step     3000 ----- CPU =    119.8695 (sec) ----------------
TotEng   =   -678533.6174 KinEng   =    580754.5122 Temp     =       299.9284 
PotEng   =  -1259288.1296 E_bond   =     69451.7502 E_angle  =    298059.8081 
E_dihed  =    142001.7940 E_impro  =      5936.1734 E_vdwl   =    -55708.0566 
E_coul   =   5684677.3109 E_long   =  -7403706.9096 Press    =        38.8959 
Volume   =   8345514.9096 
---------------- Step     3050 ----- CPU =    121.8568 (sec) ----------------
TotEng   =   -679288.8248 KinEng   =    580602.0934 Temp     =       299.8497 
PotEng   =  -1259890.9182 E_bond   =     69929.8342 E_angle  =    298115.4110 
E_dihed  =    141982.2129 E_impro  =      6140.2090 E_vdwl   =    -57304.8743 
E_coul   =   5685042.8459 E_long   =  -7403796.5568 Press    =      -133.8401 
Volume   =   8347922.4405 
---------------- Step     3100 ----- CPU =    123.8826 (sec) ----------------
TotEng   =   -679761.3454 KinEng   =    580638.9159 Temp     =       299.8687 
PotEng   =  -1260400.2613 E_bond   =     69290.6974 E_angle  =    297258.5368 
E_dihed  =    142181.1677 E_impro  =      5960.2356 E_vdwl   =    -56468.7397 
E_coul   =   5685143.3104 E_long   =  -7403765.4694 Press    =        38.7854 
Volume   =   8349096.1979 
---------------- Step     3150 ----- CPU =    125.8709 (sec) ----------------
TotEng   =   -679816.6682 KinEng   =    580626.5836 Temp     =       299.8624 
PotEng   =  -1260443.2518 E_bond   =     69364.0619 E_angle  =    297700.9417 
E_dihed  =    142157.7319 E_impro  =      6036.2778 E_vdwl   =    -57061.1181 
E_coul   =   5685069.6799 E_long   =  -7403710.8269 Press    =       -90.3700 
Volume   =   8350057.8797 
---------------- Step     3200 ----- CPU =    127.8509 (sec) ----------------
TotEng   =   -679364.2429 KinEng   =    580885.5735 Temp     =       299.9961 
PotEng   =  -1260249.8164 E_bond   =     69649.3315 E_angle  =    298039.1116 
E_dihed  =    141983.7198 E_impro  =      6009.1770 E_vdwl   =    -55201.7253 
E_coul   =   5682895.2327 E_long   =  -7403624.6638 Press    =        -4.7318 
Volume   =   8350333.6549 
---------------- Step     3250 ----- CPU =    129.8372 (sec) ----------------
TotEng   =   -679294.3523 KinEng   =    581307.2462 Temp     =       300.2139 
PotEng   =  -1260601.5985 E_bond   =     69426.1170 E_angle  =    297970.8112 
E_dihed  =    142217.2945 E_impro  =      6044.6730 E_vdwl   =    -55413.0610 
E_coul   =   5682909.5269 E_long   =  -7403756.9601 Press    =       -23.2488 
Volume   =   8349603.5029 
---------------- Step     3300 ----- CPU =    131.8689 (sec) ----------------
TotEng   =   -679894.0589 KinEng   =    580554.7300 Temp     =       299.8252 
PotEng   =  -1260448.7889 E_bond   =     69495.9289 E_angle  =    298245.3622 
E_dihed  =    142074.4695 E_impro  =      5989.0451 E_vdwl   =    -56305.8353 
E_coul   =   5683912.5877 E_long   =  -7403860.3468 Press    =       -33.8652 
Volume   =   8348579.9197 
---------------- Step     3350 ----- CPU =    133.8578 (sec) ----------------
TotEng   =   -680511.2485 KinEng   =    580945.3351 Temp     =       300.0270 
PotEng   =  -1261456.5837 E_bond   =     69324.8781 E_angle  =    297670.2175 
E_dihed  =    141855.5894 E_impro  =      5964.0768 E_vdwl   =    -55045.5836 
E_coul   =   5682613.3548 E_long   =  -7403839.1167 Press    =        23.0855 
Volume   =   8346480.8136 
---------------- Step     3400 ----- CPU =    135.8877 (sec) ----------------
TotEng   =   -680844.9451 KinEng   =    580728.5849 Temp     =       299.9150 
PotEng   =  -1261573.5301 E_bond   =     69269.1356 E_angle  =    297511.6091 
E_dihed  =    141824.2116 E_impro  =      6073.0944 E_vdwl   =    -56362.1232 
E_coul   =   5683858.5717 E_long   =  -7403748.0293 Press    =        -2.5949 
Volume   =   8345209.9038 
---------------- Step     3450 ----- CPU =    137.8771 (sec) ----------------
TotEng   =   -680542.1697 KinEng   =    580179.9161 Temp     =       299.6317 
PotEng   =  -1260722.0858 E_bond   =     69494.3092 E_angle  =    298441.7794 
E_dihed  =    141888.7737 E_impro  =      6044.1958 E_vdwl   =    -56189.6543 
E_coul   =   5683331.2571 E_long   =  -7403732.7468 Press    =        -1.7396 
Volume   =   8344078.3319 
---------------- Step     3500 ----- CPU =    139.9009 (sec) ----------------
TotEng   =   -679853.0394 KinEng   =    581476.7867 Temp     =       300.3014 
PotEng   =  -1261329.8262 E_bond   =     69291.3372 E_angle  =    297980.5639 
E_dihed  =    142180.7820 E_impro  =      6029.9481 E_vdwl   =    -56639.2261 
E_coul   =   5683540.4167 E_long   =  -7403713.6480 Press    =        -2.9199 
Volume   =   8343035.2963 
---------------- Step     3550 ----- CPU =    141.9260 (sec) ----------------
TotEng   =   -679455.6526 KinEng   =    581914.9708 Temp     =       300.5277 
PotEng   =  -1261370.6234 E_bond   =     69297.0383 E_angle  =    297791.0910 
E_dihed  =    142263.6202 E_impro  =      6043.5621 E_vdwl   =    -56534.6146 
E_coul   =   5683542.0130 E_long   =  -7403773.3335 Press    =       -63.1849 
Volume   =   8342241.5599 
---------------- Step     3600 ----- CPU =    143.9073 (sec) ----------------
TotEng   =   -679782.6910 KinEng   =    581046.9652 Temp     =       300.0795 
PotEng   =  -1260829.6561 E_bond   =     69577.7803 E_angle  =    298346.7885 
E_dihed  =    142046.2192 E_impro  =      6112.3274 E_vdwl   =    -56107.2657 
E_coul   =   5683010.1853 E_long   =  -7403815.6913 Press    =        39.5543 
Volume   =   8341273.5612 
---------------- Step     3650 ----- CPU =    145.8946 (sec) ----------------
TotEng   =   -680688.5574 KinEng   =    581486.0585 Temp     =       300.3062 
PotEng   =  -1262174.6159 E_bond   =     69365.1216 E_angle  =    297667.8609 
E_dihed  =    141576.1557 E_impro  =      6040.9841 E_vdwl   =    -56767.0590 
E_coul   =   5683765.8851 E_long   =  -7403823.5643 Press    =         3.5309 
Volume   =   8340729.4675 
---------------- Step     3700 ----- CPU =    147.9205 (sec) ----------------
TotEng   =   -681042.6165 KinEng   =    580446.0243 Temp     =       299.7691 
PotEng   =  -1261488.6408 E_bond   =     69776.7040 E_angle  =    297948.4797 
E_dihed  =    141719.8212 E_impro  =      6059.3450 E_vdwl   =    -57255.8121 
E_coul   =   5684011.1618 E_long   =  -7403748.3403 Press    =      -102.3139 
Volume   =   8340804.4039 
---------------- Step     3750 ----- CPU =    149.9065 (sec) ----------------
TotEng   =   -680498.5776 KinEng   =    581109.2313 Temp     =       300.1116 
PotEng   =  -1261607.8088 E_bond   =     69343.2927 E_angle  =    297964.9255 
E_dihed  =    141833.6656 E_impro  =      6040.0317 E_vdwl   =    -56828.0944 
E_coul   =   5683813.0175 E_long   =  -7403774.6474 Press    =        10.0728 
Volume   =   8340775.5985 
---------------- Step     3800 ----- CPU =    151.9363 (sec) ----------------
TotEng   =   -679397.1627 KinEng   =    581062.5688 Temp     =       300.0875 
PotEng   =  -1260459.7315 E_bond   =     69468.6292 E_angle  =    298294.8270 
E_dihed  =    142197.5757 E_impro  =      6064.7124 E_vdwl   =    -56348.0651 
E_coul   =   5683606.6458 E_long   =  -7403744.0564 Press    =       -22.2618 
Volume   =   8341301.0496 
---------------- Step     3850 ----- CPU =    153.9195 (sec) ----------------
TotEng   =   -678918.1517 KinEng   =    581675.8256 Temp     =       300.4042 
PotEng   =  -1260593.9773 E_bond   =     69610.7443 E_angle  =    298068.9734 
E_dihed  =    141740.7188 E_impro  =      6052.0150 E_vdwl   =    -56278.6356 
E_coul   =   5683976.6774 E_long   =  -7403764.4706 Press    =       -82.6739 
Volume   =   8341562.4329 
---------------- Step     3900 ----- CPU =    155.8995 (sec) ----------------
TotEng   =   -679740.7130 KinEng   =    580715.1629 Temp     =       299.9081 
PotEng   =  -1260455.8759 E_bond   =     69478.9552 E_angle  =    298100.7519 
E_dihed  =    142345.0219 E_impro  =      6058.5421 E_vdwl   =    -56338.5427 
E_coul   =   5683771.2540 E_long   =  -7403871.8582 Press    =        16.5335 
Volume   =   8341873.3605 
---------------- Step     3950 ----- CPU =    157.9250 (sec) ----------------
TotEng   =   -680847.2595 KinEng   =    580055.7834 Temp     =       299.5676 
PotEng   =  -1260903.0430 E_bond   =     69588.2771 E_angle  =    298324.8809 
E_dihed  =    141938.5457 E_impro  =      5992.9735 E_vdwl   =    -56206.0096 
E_coul   =   5683290.1858 E_long   =  -7403831.8964 Press    =        -7.7777 
Volume   =   8342267.6057 
---------------- Step     4000 ----- CPU =    159.9084 (sec) ----------------
TotEng   =   -681170.4116 KinEng   =    580733.3060 Temp     =       299.9175 
PotEng   =  -1261903.7176 E_bond   =     69592.4406 E_angle  =    297365.6712 
E_dihed  =    141978.0954 E_impro  =      6171.3558 E_vdwl   =    -56000.5034 
E_coul   =   5682809.1100 E_long   =  -7403819.8871 Press    =       -12.1603 
Volume   =   8342833.2707 
---------------- Step     4050 ----- CPU =    161.8906 (sec) ----------------
TotEng   =   -680520.3127 KinEng   =    581476.3325 Temp     =       300.3012 
PotEng   =  -1261996.6452 E_bond   =     69436.2631 E_angle  =    297881.8463 
E_dihed  =    142115.5648 E_impro  =      6097.8564 E_vdwl   =    -55328.3450 
E_coul   =   5681548.1988 E_long   =  -7403748.0296 Press    =       -53.9814 
Volume   =   8343134.6930 
---------------- Step     4100 ----- CPU =    163.9137 (sec) ----------------
TotEng   =   -680091.7746 KinEng   =    580942.4719 Temp     =       300.0255 
PotEng   =  -1261034.2465 E_bond   =     69382.8411 E_angle  =    298024.0185 
E_dihed  =    141938.4054 E_impro  =      6088.4750 E_vdwl   =    -54832.8729 
E_coul   =   5682093.3599 E_long   =  -7403728.4735 Press    =        79.8872 
Volume   =   8342748.1727 
---------------- Step     4150 ----- CPU =    165.8981 (sec) ----------------
TotEng   =   -680241.2062 KinEng   =    580683.7637 Temp     =       299.8919 
PotEng   =  -1260924.9699 E_bond   =     69717.1556 E_angle  =    299003.2479 
E_dihed  =    141710.1071 E_impro  =      6112.3569 E_vdwl   =    -55529.6184 
E_coul   =   5681828.2406 E_long   =  -7403766.4595 Press    =       -87.6510 
Volume   =   8342733.4687 
---------------- Step     4200 ----- CPU =    167.8764 (sec) ----------------
TotEng   =   -681197.3858 KinEng   =    580428.3476 Temp     =       299.7600 
PotEng   =  -1261625.7334 E_bond   =     69459.5470 E_angle  =    297832.9460 
E_dihed  =    141877.2191 E_impro  =      5921.2835 E_vdwl   =    -56387.8379 
E_coul   =   5683424.4495 E_long   =  -7403753.3405 Press    =         8.6379 
Volume   =   8342674.3941 
---------------- Step     4250 ----- CPU =    169.8955 (sec) ----------------
TotEng   =   -681251.1297 KinEng   =    579496.6024 Temp     =       299.2788 
PotEng   =  -1260747.7320 E_bond   =     69780.6812 E_angle  =    298870.6806 
E_dihed  =    142042.7915 E_impro  =      6096.9127 E_vdwl   =    -56313.8479 
E_coul   =   5682496.3823 E_long   =  -7403721.3324 Press    =       -43.5060 
Volume   =   8342093.2800 
---------------- Step     4300 ----- CPU =    171.8788 (sec) ----------------
TotEng   =   -680511.9584 KinEng   =    580797.0386 Temp     =       299.9504 
PotEng   =  -1261308.9970 E_bond   =     69711.5847 E_angle  =    298567.4587 
E_dihed  =    141816.5236 E_impro  =      6050.8241 E_vdwl   =    -55820.8068 
E_coul   =   5682125.6506 E_long   =  -7403760.2319 Press    =       -32.8470 
Volume   =   8341333.4241 
---------------- Step     4350 ----- CPU =    173.8976 (sec) ----------------
TotEng   =   -680157.0648 KinEng   =    580973.9045 Temp     =       300.0417 
PotEng   =  -1261130.9693 E_bond   =     69408.6801 E_angle  =    298762.5876 
E_dihed  =    141804.2693 E_impro  =      6084.8732 E_vdwl   =    -55440.4855 
E_coul   =   5682036.6965 E_long   =  -7403787.5904 Press    =        47.4501 
Volume   =   8340499.6123 
---------------- Step     4400 ----- CPU =    175.8798 (sec) ----------------
TotEng   =   -680216.2073 KinEng   =    580487.0896 Temp     =       299.7903 
PotEng   =  -1260703.2969 E_bond   =     69600.6246 E_angle  =    298627.0679 
E_dihed  =    142148.2228 E_impro  =      6052.1857 E_vdwl   =    -56387.0825 
E_coul   =   5683031.1934 E_long   =  -7403775.5087 Press    =        -4.0760 
Volume   =   8340586.8526 
---------------- Step     4450 ----- CPU =    177.9037 (sec) ----------------
TotEng   =   -680074.5608 KinEng   =    580974.6528 Temp     =       300.0421 
PotEng   =  -1261049.2136 E_bond   =     69928.2475 E_angle  =    298579.3983 
E_dihed  =    141891.6094 E_impro  =      6121.2771 E_vdwl   =    -56454.0030 
E_coul   =   5682671.2920 E_long   =  -7403787.0348 Press    =       -96.1135 
Volume   =   8340873.5996 
---------------- Step     4500 ----- CPU =    179.8891 (sec) ----------------
TotEng   =   -680209.5704 KinEng   =    581543.7207 Temp     =       300.3360 
PotEng   =  -1261753.2911 E_bond   =     70007.6029 E_angle  =    298372.4985 
E_dihed  =    141621.3467 E_impro  =      6039.2347 E_vdwl   =    -55892.0534 
E_coul   =   5681883.7764 E_long   =  -7403785.6968 Press    =       -83.2059 
Volume   =   8340616.2662 
---------------- Step     4550 ----- CPU =    181.8809 (sec) ----------------
TotEng   =   -680935.7807 KinEng   =    580753.8681 Temp     =       299.9281 
PotEng   =  -1261689.6488 E_bond   =     69545.2381 E_angle  =    298614.6784 
E_dihed  =    141777.6327 E_impro  =      6072.5698 E_vdwl   =    -56510.3489 
E_coul   =   5682606.7994 E_long   =  -7403796.2182 Press    =       -88.8882 
Volume   =   8340259.3537 
---------------- Step     4600 ----- CPU =    183.9031 (sec) ----------------
TotEng   =   -681588.5571 KinEng   =    580529.7307 Temp     =       299.8123 
PotEng   =  -1262118.2878 E_bond   =     69677.7427 E_angle  =    298489.1381 
E_dihed  =    141995.2107 E_impro  =      5977.0994 E_vdwl   =    -55780.5296 
E_coul   =   5681405.8691 E_long   =  -7403882.8183 Press    =       -23.3013 
Volume   =   8339029.1043 
---------------- Step     4650 ----- CPU =    185.9317 (sec) ----------------
TotEng   =   -681699.2287 KinEng   =    580661.8866 Temp     =       299.8806 
PotEng   =  -1262361.1153 E_bond   =     70002.5660 E_angle  =    298708.1066 
E_dihed  =    141814.5876 E_impro  =      5986.8858 E_vdwl   =    -56505.8791 
E_coul   =   5681463.5952 E_long   =  -7403830.9774 Press    =       -44.7303 
Volume   =   8338105.1790 
---------------- Step     4700 ----- CPU =    187.9162 (sec) ----------------
TotEng   =   -681158.7566 KinEng   =    581007.9800 Temp     =       300.0593 
PotEng   =  -1262166.7366 E_bond   =     69277.3354 E_angle  =    298631.2235 
E_dihed  =    141971.5648 E_impro  =      6066.4133 E_vdwl   =    -54979.5087 
E_coul   =   5680673.4862 E_long   =  -7403807.2512 Press    =        66.5929 
Volume   =   8337845.3683 
---------------- Step     4750 ----- CPU =    189.9403 (sec) ----------------
TotEng   =   -680665.0641 KinEng   =    581204.3656 Temp     =       300.1607 
PotEng   =  -1261869.4297 E_bond   =     69901.6542 E_angle  =    298761.2291 
E_dihed  =    141840.0160 E_impro  =      6167.3691 E_vdwl   =    -56451.2104 
E_coul   =   5681731.9571 E_long   =  -7403820.4448 Press    =       -70.2527 
Volume   =   8338198.4691 
---------------- Step     4800 ----- CPU =    191.9259 (sec) ----------------
TotEng   =   -680819.9605 KinEng   =    581887.1540 Temp     =       300.5134 
PotEng   =  -1262707.1145 E_bond   =     69958.2544 E_angle  =    298549.0336 
E_dihed  =    142079.3242 E_impro  =      6106.6774 E_vdwl   =    -56676.4994 
E_coul   =   5681082.8845 E_long   =  -7403806.7892 Press    =       -91.5981 
Volume   =   8338304.4467 
---------------- Step     4850 ----- CPU =    193.9095 (sec) ----------------
TotEng   =   -681366.5126 KinEng   =    579911.0626 Temp     =       299.4928 
PotEng   =  -1261277.5752 E_bond   =     69781.2014 E_angle  =    298479.1244 
E_dihed  =    142467.5429 E_impro  =      6160.0534 E_vdwl   =    -56413.2981 
E_coul   =   5682056.4367 E_long   =  -7403808.6358 Press    =       -17.1822 
Volume   =   8337631.9548 
---------------- Step     4900 ----- CPU =    195.8948 (sec) ----------------
TotEng   =   -681368.1056 KinEng   =    580275.5062 Temp     =       299.6810 
PotEng   =  -1261643.6118 E_bond   =     69688.9282 E_angle  =    299048.8299 
E_dihed  =    141905.9091 E_impro  =      6078.7811 E_vdwl   =    -56317.2008 
E_coul   =   5681779.3594 E_long   =  -7403828.2187 Press    =         5.0084 
Volume   =   8337400.9662 
---------------- Step     4950 ----- CPU =    197.9151 (sec) ----------------
TotEng   =   -681115.8846 KinEng   =    581480.0348 Temp     =       300.3031 
PotEng   =  -1262595.9194 E_bond   =     69770.1177 E_angle  =    298199.7739 
E_dihed  =    142192.8859 E_impro  =      6120.2459 E_vdwl   =    -55457.6963 
E_coul   =   5680431.0745 E_long   =  -7403852.3211 Press    =       -43.9323 
Volume   =   8337113.5126 
---------------- Step     5000 ----- CPU =    199.8889 (sec) ----------------
TotEng   =   -681609.2167 KinEng   =    580728.3216 Temp     =       299.9149 
PotEng   =  -1262337.5382 E_bond   =     69749.9281 E_angle  =    298796.2723 
E_dihed  =    142056.6754 E_impro  =      6143.3433 E_vdwl   =    -55620.1520 
E_coul   =   5680404.9907 E_long   =  -7403868.5960 Press    =         6.6055 
Volume   =   8337610.7100 
---------------- Step     5050 ----- CPU =    201.9068 (sec) ----------------
TotEng   =   -681884.6406 KinEng   =    580520.9275 Temp     =       299.8078 
PotEng   =  -1262405.5681 E_bond   =     69692.2120 E_angle  =    298766.3224 
E_dihed  =    142170.6806 E_impro  =      6115.3223 E_vdwl   =    -56760.7219 
E_coul   =   5681385.5534 E_long   =  -7403774.9369 Press    =       -16.4438 
Volume   =   8338620.4780 
---------------- Step     5100 ----- CPU =    203.8890 (sec) ----------------
TotEng   =   -681383.4086 KinEng   =    581048.1920 Temp     =       300.0801 
PotEng   =  -1262431.6006 E_bond   =     69700.2173 E_angle  =    298188.5192 
E_dihed  =    141841.6285 E_impro  =      6001.2467 E_vdwl   =    -56365.8191 
E_coul   =   5681977.8485 E_long   =  -7403775.2417 Press    =        -5.5849 
Volume   =   8338865.3379 
---------------- Step     5150 ----- CPU =    205.9134 (sec) ----------------
TotEng   =   -680421.6504 KinEng   =    581597.7713 Temp     =       300.3639 
PotEng   =  -1262019.4217 E_bond   =     69754.2192 E_angle  =    299152.5656 
E_dihed  =    141819.8062 E_impro  =      6136.1732 E_vdwl   =    -56433.1973 
E_coul   =   5681333.8657 E_long   =  -7403782.8542 Press    =        -0.6821 
Volume   =   8339369.3862 
---------------- Step     5200 ----- CPU =    207.8968 (sec) ----------------
TotEng   =   -679959.3883 KinEng   =    580990.8771 Temp     =       300.0505 
PotEng   =  -1260950.2653 E_bond   =     69826.4012 E_angle  =    298985.9004 
E_dihed  =    142266.1159 E_impro  =      6153.2063 E_vdwl   =    -56323.2224 
E_coul   =   5681928.0641 E_long   =  -7403786.7308 Press    =       -69.7083 
Volume   =   8339537.9779 
---------------- Step     5250 ----- CPU =    209.8803 (sec) ----------------
TotEng   =   -680332.3628 KinEng   =    582450.9004 Temp     =       300.8045 
PotEng   =  -1262783.2632 E_bond   =     69845.3091 E_angle  =    298418.5075 
E_dihed  =    142297.2792 E_impro  =      6074.3553 E_vdwl   =    -55765.5152 
E_coul   =   5680119.0225 E_long   =  -7403772.2215 Press    =       -38.2572 
Volume   =   8339373.2777 
---------------- Step     5300 ----- CPU =    211.9053 (sec) ----------------
TotEng   =   -681966.1956 KinEng   =    580496.1696 Temp     =       299.7950 
PotEng   =  -1262462.3651 E_bond   =     69917.0341 E_angle  =    298738.9743 
E_dihed  =    141869.2415 E_impro  =      6009.9663 E_vdwl   =    -54821.1272 
E_coul   =   5679620.0045 E_long   =  -7403796.4587 Press    =        27.2279 
Volume   =   8339003.1367 
---------------- Step     5350 ----- CPU =    213.8856 (sec) ----------------
TotEng   =   -683485.9939 KinEng   =    579950.5616 Temp     =       299.5132 
PotEng   =  -1263436.5555 E_bond   =     69878.2928 E_angle  =    298540.2519 
E_dihed  =    141725.2377 E_impro  =      5930.5147 E_vdwl   =    -55895.4453 
E_coul   =   5680124.6518 E_long   =  -7403740.0590 Press    =        25.4676 
Volume   =   8338783.5793 
---------------- Step     5400 ----- CPU =    215.9110 (sec) ----------------
TotEng   =   -683550.2808 KinEng   =    579329.4451 Temp     =       299.1925 
PotEng   =  -1262879.7259 E_bond   =     69787.9724 E_angle  =    298703.1628 
E_dihed  =    141802.1476 E_impro  =      6117.1945 E_vdwl   =    -56101.7419 
E_coul   =   5680597.6398 E_long   =  -7403786.1011 Press    =       -26.0069 
Volume   =   8337733.5972 
---------------- Step     5450 ----- CPU =    217.8939 (sec) ----------------
TotEng   =   -682028.9827 KinEng   =    580982.0768 Temp     =       300.0459 
PotEng   =  -1263011.0595 E_bond   =     69868.3993 E_angle  =    298696.2477 
E_dihed  =    141804.4058 E_impro  =      6055.5388 E_vdwl   =    -55369.7943 
E_coul   =   5679700.2595 E_long   =  -7403766.1163 Press    =        -4.1612 
Volume   =   8335998.9978 
---------------- Step     5500 ----- CPU =    219.9141 (sec) ----------------
TotEng   =   -680177.8950 KinEng   =    582044.1027 Temp     =       300.5944 
PotEng   =  -1262221.9977 E_bond   =     69959.1032 E_angle  =    299152.6904 
E_dihed  =    141882.9822 E_impro  =      6043.3397 E_vdwl   =    -55444.6743 
E_coul   =   5680055.1640 E_long   =  -7403870.6028 Press    =        -1.4808 
Volume   =   8334599.8709 
---------------- Step     5550 ----- CPU =    221.8984 (sec) ----------------
TotEng   =   -679444.5408 KinEng   =    582122.0018 Temp     =       300.6347 
PotEng   =  -1261566.5425 E_bond   =     70009.0048 E_angle  =    299174.8391 
E_dihed  =    141770.8584 E_impro  =      6151.1454 E_vdwl   =    -55640.7946 
E_coul   =   5680762.7418 E_long   =  -7403794.3374 Press    =        28.5954 
Volume   =   8333342.1439 
---------------- Step     5600 ----- CPU =    223.9222 (sec) ----------------
TotEng   =   -680479.9952 KinEng   =    581438.4980 Temp     =       300.2817 
PotEng   =  -1261918.4932 E_bond   =     69976.1715 E_angle  =    298935.2838 
E_dihed  =    142194.6975 E_impro  =      6132.7275 E_vdwl   =    -56027.8531 
E_coul   =   5680641.6745 E_long   =  -7403771.1949 Press    =       -15.6667 
Volume   =   8333111.4039 
---------------- Step     5650 ----- CPU =    225.9068 (sec) ----------------
TotEng   =   -682444.4472 KinEng   =    579856.1240 Temp     =       299.4645 
PotEng   =  -1262300.5712 E_bond   =     70113.6935 E_angle  =    298644.4740 
E_dihed  =    142340.2917 E_impro  =      5983.9319 E_vdwl   =    -56083.6408 
E_coul   =   5680476.3044 E_long   =  -7403775.6258 Press    =        34.1853 
Volume   =   8333091.9855 
---------------- Step     5700 ----- CPU =    227.8930 (sec) ----------------
TotEng   =   -683175.0623 KinEng   =    580281.1361 Temp     =       299.6839 
PotEng   =  -1263456.1984 E_bond   =     69664.2131 E_angle  =    298528.9998 
E_dihed  =    141822.0206 E_impro  =      6012.6019 E_vdwl   =    -55723.5210 
E_coul   =   5680077.8865 E_long   =  -7403838.3993 Press    =         8.4976 
Volume   =   8333336.4528 
---------------- Step     5750 ----- CPU =    229.9148 (sec) ----------------
TotEng   =   -682412.3871 KinEng   =    580535.8705 Temp     =       299.8155 
PotEng   =  -1262948.2576 E_bond   =     69519.4427 E_angle  =    299108.9326 
E_dihed  =    141966.2055 E_impro  =      6062.1623 E_vdwl   =    -56095.3104 
E_coul   =   5680282.0413 E_long   =  -7403791.7316 Press    =        33.2303 
Volume   =   8334805.5571 
---------------- Step     5800 ----- CPU =    231.9001 (sec) ----------------
TotEng   =   -681032.6409 KinEng   =    581122.7236 Temp     =       300.1186 
PotEng   =  -1262155.3645 E_bond   =     69702.8450 E_angle  =    299100.4511 
E_dihed  =    142327.8323 E_impro  =      6067.0057 E_vdwl   =    -54938.4279 
E_coul   =   5679352.3178 E_long   =  -7403767.3884 Press    =        40.6762 
Volume   =   8336618.9865 
---------------- Step     5850 ----- CPU =    233.9194 (sec) ----------------
TotEng   =   -680354.3281 KinEng   =    581685.2893 Temp     =       300.4091 
PotEng   =  -1262039.6174 E_bond   =     69913.6618 E_angle  =    299061.2803 
E_dihed  =    142221.1239 E_impro  =      6013.7673 E_vdwl   =    -55755.6804 
E_coul   =   5680302.9125 E_long   =  -7403796.6827 Press    =       -42.5313 
Volume   =   8338511.7144 
---------------- Step     5900 ----- CPU =    235.9015 (sec) ----------------
TotEng   =   -681038.0937 KinEng   =    581085.4812 Temp     =       300.0994 
PotEng   =  -1262123.5749 E_bond   =     69725.8221 E_angle  =    298884.5376 
E_dihed  =    142310.5271 E_impro  =      6105.1586 E_vdwl   =    -55906.8771 
E_coul   =   5680560.7196 E_long   =  -7403803.4627 Press    =       -54.5504 
Volume   =   8339623.8617 
---------------- Step     5950 ----- CPU =    237.9245 (sec) ----------------
TotEng   =   -681714.6504 KinEng   =    580015.1204 Temp     =       299.5466 
PotEng   =  -1261729.7708 E_bond   =     69711.6342 E_angle  =    299197.7844 
E_dihed  =    142075.7318 E_impro  =      6053.1524 E_vdwl   =    -55807.1236 
E_coul   =   5680888.5986 E_long   =  -7403849.5486 Press    =       -23.2646 
Volume   =   8340011.8277 
---------------- Step     6000 ----- CPU =    239.9047 (sec) ----------------
TotEng   =   -681755.5289 KinEng   =    580704.7499 Temp     =       299.9027 
PotEng   =  -1262460.2788 E_bond   =     69731.2558 E_angle  =    298732.8294 
E_dihed  =    142217.2440 E_impro  =      6153.5748 E_vdwl   =    -56359.8587 
E_coul   =   5680910.8462 E_long   =  -7403846.1703 Press    =       -59.2103 
Volume   =   8339822.5877 
---------------- Step     6050 ----- CPU =    241.8861 (sec) ----------------
TotEng   =   -681275.1426 KinEng   =    580996.5499 Temp     =       300.0534 
PotEng   =  -1262271.6925 E_bond   =     69956.9378 E_angle  =    299027.3670 
E_dihed  =    141814.7513 E_impro  =      6068.5740 E_vdwl   =    -55914.3705 
E_coul   =   5680623.8598 E_long   =  -7403848.8120 Press    =       -71.1634 
Volume   =   8339178.4634 
---------------- Step     6100 ----- CPU =    243.9075 (sec) ----------------
TotEng   =   -680462.6243 KinEng   =    581720.0732 Temp     =       300.4271 
PotEng   =  -1262182.6975 E_bond   =     70107.4401 E_angle  =    299076.0523 
E_dihed  =    142130.0688 E_impro  =      6093.2432 E_vdwl   =    -55666.9341 
E_coul   =   5679838.7819 E_long   =  -7403761.3498 Press    =        83.1575 
Volume   =   8337893.9766 
---------------- Step     6150 ----- CPU =    245.8911 (sec) ----------------
TotEng   =   -680496.6012 KinEng   =    581080.4841 Temp     =       300.0968 
PotEng   =  -1261577.0853 E_bond   =     69778.3959 E_angle  =    299327.9777 
E_dihed  =    142050.3997 E_impro  =      6099.1535 E_vdwl   =    -55076.2971 
E_coul   =   5680037.9719 E_long   =  -7403794.6869 Press    =         1.7204 
Volume   =   8337126.2734 
---------------- Step     6200 ----- CPU =    247.9151 (sec) ----------------
TotEng   =   -681493.4477 KinEng   =    580953.4568 Temp     =       300.0312 
PotEng   =  -1262446.9045 E_bond   =     69477.1131 E_angle  =    299339.5045 
E_dihed  =    142378.1450 E_impro  =      6007.0626 E_vdwl   =    -56036.1554 
E_coul   =   5680180.1461 E_long   =  -7403792.7203 Press    =       -43.3361 
Volume   =   8337615.7965 
---------------- Step     6250 ----- CPU =    249.8991 (sec) ----------------
TotEng   =   -682208.6796 KinEng   =    580512.5487 Temp     =       299.8035 
PotEng   =  -1262721.2283 E_bond   =     69618.4765 E_angle  =    299393.0239 
E_dihed  =    142221.2337 E_impro  =      5958.3438 E_vdwl   =    -56826.3262 
E_coul   =   5680677.6645 E_long   =  -7403763.6445 Press    =       -26.8193 
Volume   =   8337674.8549 
---------------- Step     6300 ----- CPU =    251.8883 (sec) ----------------
TotEng   =   -681922.9672 KinEng   =    580087.4111 Temp     =       299.5839 
PotEng   =  -1262010.3783 E_bond   =     69854.0278 E_angle  =    299338.8046 
E_dihed  =    141924.1684 E_impro  =      6121.5036 E_vdwl   =    -56054.7798 
E_coul   =   5680562.0934 E_long   =  -7403756.1963 Press    =       -27.4735 
Volume   =   8337198.8589 
---------------- Step     6350 ----- CPU =    253.9136 (sec) ----------------
TotEng   =   -680992.5777 KinEng   =    581006.9060 Temp     =       300.0588 
PotEng   =  -1261999.4837 E_bond   =     69803.6236 E_angle  =    299602.6926 
E_dihed  =    142071.5521 E_impro  =      6073.6351 E_vdwl   =    -56253.0867 
E_coul   =   5680417.0654 E_long   =  -7403714.9658 Press    =      -117.5640 
Volume   =   8336106.9800 
---------------- Step     6400 ----- CPU =    255.9411 (sec) ----------------
TotEng   =   -680738.5329 KinEng   =    581354.9376 Temp     =       300.2385 
PotEng   =  -1262093.4705 E_bond   =     70065.8465 E_angle  =    299546.1391 
E_dihed  =    142115.5354 E_impro  =      6092.2219 E_vdwl   =    -56021.8409 
E_coul   =   5679896.4377 E_long   =  -7403787.8102 Press    =        32.0573 
Volume   =   8334236.4302 
---------------- Step     6450 ----- CPU =    257.9263 (sec) ----------------
TotEng   =   -681627.0519 KinEng   =    581211.6833 Temp     =       300.1645 
PotEng   =  -1262838.7353 E_bond   =     69848.7741 E_angle  =    299470.0044 
E_dihed  =    142353.7234 E_impro  =      6059.3123 E_vdwl   =    -55839.7781 
E_coul   =   5679040.8692 E_long   =  -7403771.6406 Press    =       -60.9579 
Volume   =   8333056.1772 
---------------- Step     6500 ----- CPU =    259.9465 (sec) ----------------
TotEng   =   -682725.7908 KinEng   =    580375.4007 Temp     =       299.7326 
PotEng   =  -1263101.1915 E_bond   =     69588.7387 E_angle  =    299007.6507 
E_dihed  =    142000.6668 E_impro  =      6062.1026 E_vdwl   =    -55798.0897 
E_coul   =   5679810.1969 E_long   =  -7403772.4574 Press    =        26.4300 
Volume   =   8332286.8640 
---------------- Step     6550 ----- CPU =    261.9296 (sec) ----------------
TotEng   =   -682869.0339 KinEng   =    580709.8839 Temp     =       299.9054 
PotEng   =  -1263578.9178 E_bond   =     69914.4765 E_angle  =    298973.5372 
E_dihed  =    142284.0833 E_impro  =      6068.0698 E_vdwl   =    -55061.3779 
E_coul   =   5677960.2511 E_long   =  -7403717.9577 Press    =       -66.8829 
Volume   =   8331227.8857 
---------------- Step     6600 ----- CPU =    263.9490 (sec) ----------------
TotEng   =   -682758.0499 KinEng   =    581062.7679 Temp     =       300.0876 
PotEng   =  -1263820.8177 E_bond   =     69844.2567 E_angle  =    299178.8762 
E_dihed  =    141721.3210 E_impro  =      6071.1919 E_vdwl   =    -54895.5111 
E_coul   =   5678020.6106 E_long   =  -7403761.5630 Press    =        20.2062 
Volume   =   8329952.6020 
---------------- Step     6650 ----- CPU =    265.9322 (sec) ----------------
TotEng   =   -682934.5834 KinEng   =    580469.2357 Temp     =       299.7811 
PotEng   =  -1263403.8190 E_bond   =     69574.6768 E_angle  =    299175.3089 
E_dihed  =    142294.5853 E_impro  =      6042.1223 E_vdwl   =    -55249.2982 
E_coul   =   5678548.6610 E_long   =  -7403789.8752 Press    =        57.7725 
Volume   =   8329605.7934 
---------------- Step     6700 ----- CPU =    267.9571 (sec) ----------------
TotEng   =   -682439.8443 KinEng   =    579519.6862 Temp     =       299.2907 
PotEng   =  -1261959.5305 E_bond   =     70193.9069 E_angle  =    299346.1898 
E_dihed  =    142380.4591 E_impro  =      6082.7787 E_vdwl   =    -55623.2017 
E_coul   =   5679455.2055 E_long   =  -7403794.8688 Press    =       -44.7977 
Volume   =   8329750.5436 
---------------- Step     6750 ----- CPU =    269.9406 (sec) ----------------
TotEng   =   -681254.4165 KinEng   =    580327.6402 Temp     =       299.7080 
PotEng   =  -1261582.0567 E_bond   =     69837.3295 E_angle  =    299847.6992 
E_dihed  =    142229.4636 E_impro  =      6135.4230 E_vdwl   =    -55916.4478 
E_coul   =   5680033.4108 E_long   =  -7403748.9351 Press    =        28.1679 
Volume   =   8330377.6762 
---------------- Step     6800 ----- CPU =    271.9619 (sec) ----------------
TotEng   =   -680548.2865 KinEng   =    581492.9801 Temp     =       300.3098 
PotEng   =  -1262041.2666 E_bond   =     69874.9925 E_angle  =    299602.9770 
E_dihed  =    142140.1559 E_impro  =      6064.0962 E_vdwl   =    -55270.0552 
E_coul   =   5679331.4710 E_long   =  -7403784.9041 Press    =        41.0808 
Volume   =   8331223.2577 
---------------- Step     6850 ----- CPU =    273.9454 (sec) ----------------
TotEng   =   -681297.2159 KinEng   =    581016.4695 Temp     =       300.0637 
PotEng   =  -1262313.6854 E_bond   =     69923.1083 E_angle  =    299432.0679 
E_dihed  =    142087.5353 E_impro  =      6015.3918 E_vdwl   =    -55661.0452 
E_coul   =   5679668.7738 E_long   =  -7403779.5172 Press    =       -91.5994 
Volume   =   8332103.9450 
---------------- Step     6900 ----- CPU =    275.9735 (sec) ----------------
TotEng   =   -682636.7463 KinEng   =    580649.0095 Temp     =       299.8739 
PotEng   =  -1263285.7558 E_bond   =     69905.6696 E_angle  =    298933.4992 
E_dihed  =    141950.9354 E_impro  =      6062.6285 E_vdwl   =    -56606.1382 
E_coul   =   5680231.9753 E_long   =  -7403764.3256 Press    =       -73.1686 
Volume   =   8332455.0052 
---------------- Step     6950 ----- CPU =    277.9545 (sec) ----------------
TotEng   =   -683668.6352 KinEng   =    579553.9608 Temp     =       299.3084 
PotEng   =  -1263222.5960 E_bond   =     69603.5812 E_angle  =    299114.1782 
E_dihed  =    141903.7525 E_impro  =      6056.7841 E_vdwl   =    -54789.0513 
E_coul   =   5678664.0474 E_long   =  -7403775.8881 Press    =        62.9479 
Volume   =   8331954.9480 
---------------- Step     7000 ----- CPU =    279.9370 (sec) ----------------
TotEng   =   -683442.3900 KinEng   =    580182.9871 Temp     =       299.6333 
PotEng   =  -1263625.3771 E_bond   =     69985.5008 E_angle  =    299200.4051 
E_dihed  =    142082.1131 E_impro  =      5873.4979 E_vdwl   =    -55022.3174 
E_coul   =   5678022.5506 E_long   =  -7403767.1271 Press    =       -16.5031 
Volume   =   8331778.0149 
---------------- Step     7050 ----- CPU =    281.9563 (sec) ----------------
TotEng   =   -682332.9230 KinEng   =    581091.2039 Temp     =       300.1023 
PotEng   =  -1263424.1269 E_bond   =     70051.4493 E_angle  =    299400.9121 
E_dihed  =    141993.0787 E_impro  =      6026.5088 E_vdwl   =    -55335.3221 
E_coul   =   5678254.0129 E_long   =  -7403814.7666 Press    =       -45.7892 
Volume   =   8331184.0718 
---------------- Step     7100 ----- CPU =    283.9344 (sec) ----------------
TotEng   =   -681273.7961 KinEng   =    581027.3712 Temp     =       300.0693 
PotEng   =  -1262301.1673 E_bond   =     69667.3965 E_angle  =    299706.2919 
E_dihed  =    142066.4020 E_impro  =      6048.4146 E_vdwl   =    -54769.8197 
E_coul   =   5678630.7855 E_long   =  -7403650.6380 Press    =        50.4974 
Volume   =   8329981.9157 
---------------- Step     7150 ----- CPU =    285.9547 (sec) ----------------
TotEng   =   -681358.4343 KinEng   =    581530.8605 Temp     =       300.3294 
PotEng   =  -1262889.2948 E_bond   =     70016.0652 E_angle  =    299554.6580 
E_dihed  =    141837.4467 E_impro  =      6100.9078 E_vdwl   =    -55428.6140 
E_coul   =   5678838.7679 E_long   =  -7403808.5263 Press    =        52.3367 
Volume   =   8329134.8478 
---------------- Step     7200 ----- CPU =    287.9354 (sec) ----------------
TotEng   =   -682902.7979 KinEng   =    581069.9328 Temp     =       300.0913 
PotEng   =  -1263972.7307 E_bond   =     69536.8018 E_angle  =    299084.5251 
E_dihed  =    141783.6328 E_impro  =      6127.4600 E_vdwl   =    -55626.7525 
E_coul   =   5678873.4229 E_long   =  -7403751.8207 Press    =        20.3676 
Volume   =   8328818.6640 
---------------- Step     7250 ----- CPU =    289.9160 (sec) ----------------
TotEng   =   -684373.3101 KinEng   =    580286.1014 Temp     =       299.6865 
PotEng   =  -1264659.4115 E_bond   =     70070.0307 E_angle  =    298901.4025 
E_dihed  =    141980.2070 E_impro  =      6039.9795 E_vdwl   =    -55716.9232 
E_coul   =   5677838.3222 E_long   =  -7403772.4303 Press    =       -41.3935 
Volume   =   8328758.1308 
---------------- Step     7300 ----- CPU =    291.9415 (sec) ----------------
TotEng   =   -684484.2973 KinEng   =    580071.9848 Temp     =       299.5759 
PotEng   =  -1264556.2822 E_bond   =     69537.3139 E_angle  =    299024.5601 
E_dihed  =    141898.6821 E_impro  =      6114.4267 E_vdwl   =    -54884.6839 
E_coul   =   5677478.9556 E_long   =  -7403725.5368 Press    =        63.4818 
Volume   =   8328381.1904 
---------------- Step     7350 ----- CPU =    293.9267 (sec) ----------------
TotEng   =   -683402.1456 KinEng   =    581249.4679 Temp     =       300.1840 
PotEng   =  -1264651.6135 E_bond   =     69908.4733 E_angle  =    298645.4693 
E_dihed  =    142153.3102 E_impro  =      6095.5005 E_vdwl   =    -54968.0589 
E_coul   =   5677234.8802 E_long   =  -7403721.1881 Press    =        -2.3652 
Volume   =   8328385.9535 
---------------- Step     7400 ----- CPU =    295.9121 (sec) ----------------
TotEng   =   -682135.4538 KinEng   =    581033.8709 Temp     =       300.0727 
PotEng   =  -1263169.3247 E_bond   =     70287.5138 E_angle  =    299677.3503 
E_dihed  =    142226.3500 E_impro  =      6081.7670 E_vdwl   =    -55531.5066 
E_coul   =   5677848.2099 E_long   =  -7403759.0091 Press    =       -73.1238 
Volume   =   8329304.1417 
---------------- Step     7450 ----- CPU =    297.9377 (sec) ----------------
TotEng   =   -681528.1254 KinEng   =    581263.5758 Temp     =       300.1913 
PotEng   =  -1262791.7012 E_bond   =     70210.7499 E_angle  =    299926.4687 
E_dihed  =    142046.7316 E_impro  =      6105.8212 E_vdwl   =    -54537.0478 
E_coul   =   5677310.5091 E_long   =  -7403854.9339 Press    =        11.1981 
Volume   =   8330221.4238 
---------------- Step     7500 ----- CPU =    299.9216 (sec) ----------------
TotEng   =   -681754.6197 KinEng   =    581383.2915 Temp     =       300.2532 
PotEng   =  -1263137.9112 E_bond   =     69978.7509 E_angle  =    299829.7397 
E_dihed  =    142165.0878 E_impro  =      6087.1522 E_vdwl   =    -55469.0134 
E_coul   =   5678018.6951 E_long   =  -7403748.3236 Press    =       -35.5069 
Volume   =   8331682.1277 
---------------- Step     7550 ----- CPU =    301.9468 (sec) ----------------
TotEng   =   -682499.0014 KinEng   =    580343.5689 Temp     =       299.7162 
PotEng   =  -1262842.5703 E_bond   =     70123.8949 E_angle  =    299462.7395 
E_dihed  =    142359.6782 E_impro  =      5993.4112 E_vdwl   =    -55225.4677 
E_coul   =   5678260.9284 E_long   =  -7403817.7549 Press    =       -23.3893 
Volume   =   8332803.6232 
---------------- Step     7600 ----- CPU =    303.9315 (sec) ----------------
TotEng   =   -682851.6206 KinEng   =    580863.6512 Temp     =       299.9848 
PotEng   =  -1263715.2719 E_bond   =     69972.6941 E_angle  =    299682.8694 
E_dihed  =    142432.4700 E_impro  =      5982.7486 E_vdwl   =    -56191.5551 
E_coul   =   5678188.7561 E_long   =  -7403783.2548 Press    =      -127.2890 
Volume   =   8333202.4778 
---------------- Step     7650 ----- CPU =    305.9183 (sec) ----------------
TotEng   =   -682549.3156 KinEng   =    580674.7689 Temp     =       299.8872 
PotEng   =  -1263224.0844 E_bond   =     70109.8039 E_angle  =    299370.0478 
E_dihed  =    142093.2391 E_impro  =      6020.3842 E_vdwl   =    -56003.4877 
E_coul   =   5679024.8722 E_long   =  -7403838.9439 Press    =        13.4195 
Volume   =   8332166.6275 
---------------- Step     7700 ----- CPU =    307.9380 (sec) ----------------
TotEng   =   -682022.1028 KinEng   =    580958.5054 Temp     =       300.0338 
PotEng   =  -1262980.6082 E_bond   =     70155.7643 E_angle  =    300024.0683 
E_dihed  =    142094.8921 E_impro  =      6081.0533 E_vdwl   =    -55043.3995 
E_coul   =   5677522.5395 E_long   =  -7403815.5261 Press    =        -7.2327 
Volume   =   8330172.3523 
---------------- Step     7750 ----- CPU =    309.9215 (sec) ----------------
TotEng   =   -682242.6056 KinEng   =    581228.9634 Temp     =       300.1735 
PotEng   =  -1263471.5690 E_bond   =     70099.8572 E_angle  =    299607.9959 
E_dihed  =    142015.6948 E_impro  =      6096.9479 E_vdwl   =    -54920.1440 
E_coul   =   5677434.6190 E_long   =  -7403806.5398 Press    =        18.6422 
Volume   =   8328725.7665 
---------------- Step     7800 ----- CPU =    311.9060 (sec) ----------------
TotEng   =   -683215.6328 KinEng   =    580937.5645 Temp     =       300.0230 
PotEng   =  -1264153.1973 E_bond   =     69880.9051 E_angle  =    299115.7317 
E_dihed  =    142066.5573 E_impro  =      6106.3188 E_vdwl   =    -55220.4125 
E_coul   =   5677711.8659 E_long   =  -7403814.1636 Press    =       -16.3831 
Volume   =   8328349.2832 
---------------- Step     7850 ----- CPU =    313.9335 (sec) ----------------
TotEng   =   -684156.5479 KinEng   =    580925.8898 Temp     =       300.0169 
PotEng   =  -1265082.4377 E_bond   =     69545.8599 E_angle  =    299464.3814 
E_dihed  =    141804.4931 E_impro  =      6030.9097 E_vdwl   =    -55111.7535 
E_coul   =   5677014.5934 E_long   =  -7403830.9217 Press    =       -45.5894 
Volume   =   8328577.7434 
---------------- Step     7900 ----- CPU =    315.9242 (sec) ----------------
TotEng   =   -684424.5092 KinEng   =    580174.0998 Temp     =       299.6287 
PotEng   =  -1264598.6091 E_bond   =     69741.8460 E_angle  =    299459.0389 
E_dihed  =    141613.5605 E_impro  =      6031.3005 E_vdwl   =    -55301.0216 
E_coul   =   5677625.9774 E_long   =  -7403769.3107 Press    =        -2.6318 
Volume   =   8328707.5430 
---------------- Step     7950 ----- CPU =    317.9515 (sec) ----------------
TotEng   =   -684082.4145 KinEng   =    580464.8230 Temp     =       299.7788 
PotEng   =  -1264547.2375 E_bond   =     69922.9398 E_angle  =    299087.1875 
E_dihed  =    142024.0068 E_impro  =      6081.8720 E_vdwl   =    -55122.1078 
E_coul   =   5677353.2723 E_long   =  -7403894.4080 Press    =        15.6742 
Volume   =   8328055.8416 
---------------- Step     8000 ----- CPU =    319.9338 (sec) ----------------
TotEng   =   -683278.9044 KinEng   =    581199.6988 Temp     =       300.1583 
PotEng   =  -1264478.6032 E_bond   =     69922.0669 E_angle  =    299534.6707 
E_dihed  =    141614.9415 E_impro  =      6094.5654 E_vdwl   =    -55332.2671 
E_coul   =   5677530.3476 E_long   =  -7403842.9282 Press    =        -3.9074 
Volume   =   8327728.4299 
---------------- Step     8050 ----- CPU =    321.9606 (sec) ----------------
TotEng   =   -682373.5762 KinEng   =    581127.7294 Temp     =       300.1212 
PotEng   =  -1263501.3056 E_bond   =     70085.2821 E_angle  =    300042.3243 
E_dihed  =    142058.3019 E_impro  =      6029.6868 E_vdwl   =    -56427.2479 
E_coul   =   5678531.4979 E_long   =  -7403821.1507 Press    =       -64.7116 
Volume   =   8327360.1846 
---------------- Step     8100 ----- CPU =    323.9463 (sec) ----------------
TotEng   =   -681800.8082 KinEng   =    581366.3032 Temp     =       300.2444 
PotEng   =  -1263167.1114 E_bond   =     69791.8086 E_angle  =    299425.1181 
E_dihed  =    142383.5953 E_impro  =      6222.0935 E_vdwl   =    -56128.7868 
E_coul   =   5678988.4116 E_long   =  -7403849.3517 Press    =       -27.3368 
Volume   =   8326109.4049 
---------------- Step     8150 ----- CPU =    325.9736 (sec) ----------------
TotEng   =   -682265.4683 KinEng   =    581123.6190 Temp     =       300.1190 
PotEng   =  -1263389.0873 E_bond   =     70145.9316 E_angle  =    299735.1089 
E_dihed  =    142326.2708 E_impro  =      6151.7597 E_vdwl   =    -54764.3184 
E_coul   =   5676850.3645 E_long   =  -7403834.2046 Press    =        45.2294 
Volume   =   8324489.5284 
---------------- Step     8200 ----- CPU =    327.9634 (sec) ----------------
TotEng   =   -683755.7621 KinEng   =    580807.1575 Temp     =       299.9556 
PotEng   =  -1264562.9195 E_bond   =     70212.4822 E_angle  =    299197.7978 
E_dihed  =    141912.9429 E_impro  =      6105.7252 E_vdwl   =    -55499.7015 
E_coul   =   5677307.8624 E_long   =  -7403800.0285 Press    =         5.8649 
Volume   =   8323726.0035 
---------------- Step     8250 ----- CPU =    329.9481 (sec) ----------------
TotEng   =   -685203.6968 KinEng   =    580175.8757 Temp     =       299.6296 
PotEng   =  -1265379.5725 E_bond   =     69674.9540 E_angle  =    299119.2886 
E_dihed  =    141957.1055 E_impro  =      6098.4736 E_vdwl   =    -55650.0249 
E_coul   =   5677308.1689 E_long   =  -7403887.5381 Press    =        14.1435 
Volume   =   8323171.9585 
---------------- Step     8300 ----- CPU =    331.9296 (sec) ----------------
TotEng   =   -685392.6510 KinEng   =    579266.2849 Temp     =       299.1598 
PotEng   =  -1264658.9358 E_bond   =     70072.4766 E_angle  =    298986.5797 
E_dihed  =    141810.5650 E_impro  =      6130.2914 E_vdwl   =    -54806.8912 
E_coul   =   5677019.3371 E_long   =  -7403871.2943 Press    =       -14.5961 
Volume   =   8323366.2786 
---------------- Step     8350 ----- CPU =    333.9514 (sec) ----------------
TotEng   =   -683544.9524 KinEng   =    581176.0316 Temp     =       300.1461 
PotEng   =  -1264720.9841 E_bond   =     70113.1060 E_angle  =    299228.2954 
E_dihed  =    141834.6882 E_impro  =      6101.2924 E_vdwl   =    -55421.7820 
E_coul   =   5677257.4929 E_long   =  -7403834.0769 Press    =       -50.3348 
Volume   =   8323699.4004 
---------------- Step     8400 ----- CPU =    335.9395 (sec) ----------------
TotEng   =   -681670.5051 KinEng   =    581476.6457 Temp     =       300.3014 
PotEng   =  -1263147.1508 E_bond   =     70014.8228 E_angle  =    299854.5032 
E_dihed  =    142145.4260 E_impro  =      6189.9675 E_vdwl   =    -54560.8837 
E_coul   =   5677107.4438 E_long   =  -7403898.4305 Press    =        82.3909 
Volume   =   8324389.2756 
---------------- Step     8450 ----- CPU =    337.9227 (sec) ----------------
TotEng   =   -681906.1660 KinEng   =    582387.4593 Temp     =       300.7718 
PotEng   =  -1264293.6253 E_bond   =     69945.0152 E_angle  =    299780.8882 
E_dihed  =    141985.9099 E_impro  =      6067.5521 E_vdwl   =    -55345.8561 
E_coul   =   5677080.0524 E_long   =  -7403807.1870 Press    =       -29.4969 
Volume   =   8326374.5170 
---------------- Step     8500 ----- CPU =    339.9069 (sec) ----------------
TotEng   =   -684063.1387 KinEng   =    580536.5066 Temp     =       299.8158 
PotEng   =  -1264599.6453 E_bond   =     70020.3835 E_angle  =    299545.1178 
E_dihed  =    141701.8394 E_impro  =      6140.7641 E_vdwl   =    -56412.0684 
E_coul   =   5678149.6580 E_long   =  -7403745.3397 Press    =       -60.4626 
Volume   =   8328680.9531 
---------------- Step     8550 ----- CPU =    341.9296 (sec) ----------------
TotEng   =   -685380.6429 KinEng   =    579036.2553 Temp     =       299.0410 
PotEng   =  -1264416.8981 E_bond   =     69764.5212 E_angle  =    299636.1336 
E_dihed  =    142065.5828 E_impro  =      6047.0419 E_vdwl   =    -56709.8187 
E_coul   =   5678614.5547 E_long   =  -7403834.9136 Press    =       -51.9249 
Volume   =   8329923.0215 
---------------- Step     8600 ----- CPU =    343.9120 (sec) ----------------
TotEng   =   -684691.2682 KinEng   =    580495.3537 Temp     =       299.7946 
PotEng   =  -1265186.6219 E_bond   =     69782.9053 E_angle  =    298885.1622 
E_dihed  =    141825.8186 E_impro  =      6065.5443 E_vdwl   =    -55416.1900 
E_coul   =   5677522.2442 E_long   =  -7403852.1064 Press    =        59.4236 
Volume   =   8329793.1149 
---------------- Step     8650 ----- CPU =    345.9402 (sec) ----------------
TotEng   =   -682624.5417 KinEng   =    581619.1459 Temp     =       300.3750 
PotEng   =  -1264243.6877 E_bond   =     69992.9805 E_angle  =    299706.1314 
E_dihed  =    141980.0474 E_impro  =      6036.6421 E_vdwl   =    -55479.3882 
E_coul   =   5677326.4010 E_long   =  -7403806.5019 Press    =       -65.8342 
Volume   =   8329793.1289 
---------------- Step     8700 ----- CPU =    347.9250 (sec) ----------------
TotEng   =   -681271.3869 KinEng   =    581039.3752 Temp     =       300.0755 
PotEng   =  -1262310.7620 E_bond   =     69987.4938 E_angle  =    300618.1994 
E_dihed  =    141848.6641 E_impro  =      6085.8854 E_vdwl   =    -56071.5430 
E_coul   =   5678946.7734 E_long   =  -7403726.2351 Press    =       -74.9887 
Volume   =   8329798.2953 
---------------- Step     8750 ----- CPU =    349.9463 (sec) ----------------
TotEng   =   -681555.0482 KinEng   =    581120.0933 Temp     =       300.1172 
PotEng   =  -1262675.1416 E_bond   =     70228.5418 E_angle  =    300450.8440 
E_dihed  =    141681.6340 E_impro  =      6071.2087 E_vdwl   =    -56085.9158 
E_coul   =   5678780.7354 E_long   =  -7403802.1897 Press    =       -13.9842 
Volume   =   8329400.5028 
---------------- Step     8800 ----- CPU =    351.9309 (sec) ----------------
TotEng   =   -682949.7381 KinEng   =    580861.2263 Temp     =       299.9835 
PotEng   =  -1263810.9644 E_bond   =     69737.5389 E_angle  =    300306.0332 
E_dihed  =    141969.8717 E_impro  =      6024.8905 E_vdwl   =    -56430.5995 
E_coul   =   5678368.5232 E_long   =  -7403787.2224 Press    =       -84.0070 
Volume   =   8329082.5351 
---------------- Step     8850 ----- CPU =    353.9520 (sec) ----------------
TotEng   =   -684498.8189 KinEng   =    580299.7079 Temp     =       299.6935 
PotEng   =  -1264798.5268 E_bond   =     69519.1825 E_angle  =    299847.0334 
E_dihed  =    142138.4822 E_impro  =      6102.1831 E_vdwl   =    -55547.4638 
E_coul   =   5676957.3342 E_long   =  -7403815.2784 Press    =        19.0276 
Volume   =   8327838.8914 
---------------- Step     8900 ----- CPU =    355.9372 (sec) ----------------
TotEng   =   -685072.3136 KinEng   =    581139.0689 Temp     =       300.1270 
PotEng   =  -1266211.3826 E_bond   =     69892.8152 E_angle  =    298572.7572 
E_dihed  =    141809.3938 E_impro  =      6072.2281 E_vdwl   =    -55119.4898 
E_coul   =   5676353.8234 E_long   =  -7403792.9104 Press    =       -48.5749 
Volume   =   8325916.8989 
---------------- Step     8950 ----- CPU =    357.9635 (sec) ----------------
TotEng   =   -684665.3010 KinEng   =    580763.9306 Temp     =       299.9333 
PotEng   =  -1265429.2316 E_bond   =     69939.3583 E_angle  =    299040.4358 
E_dihed  =    141667.3839 E_impro  =      6124.7737 E_vdwl   =    -53991.8749 
E_coul   =   5675620.9106 E_long   =  -7403830.2190 Press    =        15.3973 
Volume   =   8324302.3985 
---------------- Step     9000 ----- CPU =    359.9481 (sec) ----------------
TotEng   =   -683673.1667 KinEng   =    581558.2890 Temp     =       300.3435 
PotEng   =  -1265231.4557 E_bond   =     70069.8329 E_angle  =    299366.5442 
E_dihed  =    141928.2471 E_impro  =      6086.8987 E_vdwl   =    -55437.1563 
E_coul   =   5676626.5944 E_long   =  -7403872.4167 Press    =        -4.1814 
Volume   =   8324054.9376 
---------------- Step     9050 ----- CPU =    361.9705 (sec) ----------------
TotEng   =   -683317.9290 KinEng   =    580882.5733 Temp     =       299.9946 
PotEng   =  -1264200.5023 E_bond   =     69730.5343 E_angle  =    299980.4697 
E_dihed  =    141963.1523 E_impro  =      6011.0995 E_vdwl   =    -55359.1948 
E_coul   =   5677294.1674 E_long   =  -7403820.7306 Press    =         0.8642 
Volume   =   8324357.2132 
---------------- Step     9100 ----- CPU =    363.9548 (sec) ----------------
TotEng   =   -683280.3812 KinEng   =    580232.7172 Temp     =       299.6589 
PotEng   =  -1263513.0984 E_bond   =     70140.9054 E_angle  =    299711.5455 
E_dihed  =    142389.5451 E_impro  =      6153.2868 E_vdwl   =    -55843.3207 
E_coul   =   5677748.0411 E_long   =  -7403813.1017 Press    =       -92.0964 
Volume   =   8324912.8847 
---------------- Step     9150 ----- CPU =    365.9424 (sec) ----------------
TotEng   =   -682837.1608 KinEng   =    580130.6361 Temp     =       299.6062 
PotEng   =  -1262967.7969 E_bond   =     69950.1027 E_angle  =    300206.8000 
E_dihed  =    142170.1311 E_impro  =      6068.8478 E_vdwl   =    -55714.6210 
E_coul   =   5678195.3790 E_long   =  -7403844.4366 Press    =       -27.5682 
Volume   =   8324719.8257 
---------------- Step     9200 ----- CPU =    367.9329 (sec) ----------------
TotEng   =   -682851.6820 KinEng   =    581436.3011 Temp     =       300.2805 
PotEng   =  -1264287.9830 E_bond   =     70243.4806 E_angle  =    300017.5034 
E_dihed  =    142079.6574 E_impro  =      6072.0345 E_vdwl   =    -56491.2998 
E_coul   =   5677635.5302 E_long   =  -7403844.8894 Press    =       -27.0577 
Volume   =   8324472.1488 
---------------- Step     9250 ----- CPU =    369.9588 (sec) ----------------
TotEng   =   -683804.5879 KinEng   =    581019.3938 Temp     =       300.0652 
PotEng   =  -1264823.9818 E_bond   =     69859.2693 E_angle  =    299799.6289 
E_dihed  =    142266.5118 E_impro  =      6113.4033 E_vdwl   =    -56395.0833 
E_coul   =   5677409.3725 E_long   =  -7403877.0842 Press    =        -6.2976 
Volume   =   8324694.5527 
---------------- Step     9300 ----- CPU =    371.9846 (sec) ----------------
TotEng   =   -684575.4169 KinEng   =    580372.8364 Temp     =       299.7313 
PotEng   =  -1264948.2533 E_bond   =     69736.1180 E_angle  =    299176.2392 
E_dihed  =    142372.7954 E_impro  =      6040.9333 E_vdwl   =    -55133.7810 
E_coul   =   5676711.0562 E_long   =  -7403851.6144 Press    =       -45.4962 
Volume   =   8325220.4886 
---------------- Step     9350 ----- CPU =    373.9683 (sec) ----------------
TotEng   =   -684858.4780 KinEng   =    580321.5303 Temp     =       299.7048 
PotEng   =  -1265180.0083 E_bond   =     69546.3024 E_angle  =    300497.4357 
E_dihed  =    142118.1483 E_impro  =      6064.8258 E_vdwl   =    -55514.6658 
E_coul   =   5675990.3713 E_long   =  -7403882.4259 Press    =         4.6331 
Volume   =   8325709.8217 
---------------- Step     9400 ----- CPU =    375.9525 (sec) ----------------
TotEng   =   -684397.4043 KinEng   =    581224.9778 Temp     =       300.1714 
PotEng   =  -1265622.3821 E_bond   =     69801.1899 E_angle  =    299451.8702 
E_dihed  =    141988.5745 E_impro  =      6087.2576 E_vdwl   =    -55310.8231 
E_coul   =   5676177.1991 E_long   =  -7403817.6502 Press    =        28.5118 
Volume   =   8325954.1023 
---------------- Step     9450 ----- CPU =    377.9352 (sec) ----------------
TotEng   =   -683745.6435 KinEng   =    580532.1524 Temp     =       299.8136 
PotEng   =  -1264277.7959 E_bond   =     69647.9113 E_angle  =    300218.6288 
E_dihed  =    142232.2858 E_impro  =      6073.4506 E_vdwl   =    -55284.9809 
E_coul   =   5676589.3620 E_long   =  -7403754.4535 Press    =       -57.5306 
Volume   =   8326589.0203 
---------------- Step     9500 ----- CPU =    379.9555 (sec) ----------------
TotEng   =   -683028.0591 KinEng   =    580987.1737 Temp     =       300.0486 
PotEng   =  -1264015.2328 E_bond   =     69829.0656 E_angle  =    299690.2557 
E_dihed  =    142041.5923 E_impro  =      6163.8344 E_vdwl   =    -55500.0671 
E_coul   =   5677588.6288 E_long   =  -7403828.5425 Press    =       -62.1596 
Volume   =   8326488.3429 
---------------- Step     9550 ----- CPU =    381.9400 (sec) ----------------
TotEng   =   -682681.6457 KinEng   =    582120.5181 Temp     =       300.6339 
PotEng   =  -1264802.1638 E_bond   =     69561.1134 E_angle  =    300381.7132 
E_dihed  =    142067.8408 E_impro  =      6003.0076 E_vdwl   =    -56377.0160 
E_coul   =   5677313.7236 E_long   =  -7403752.5463 Press    =       -60.1539 
Volume   =   8326093.2933 
---------------- Step     9600 ----- CPU =    383.9601 (sec) ----------------
TotEng   =   -683004.9298 KinEng   =    580653.0854 Temp     =       299.8760 
PotEng   =  -1263658.0152 E_bond   =     69668.1895 E_angle  =    300689.7673 
E_dihed  =    142276.5562 E_impro  =      6112.2101 E_vdwl   =    -55211.7276 
E_coul   =   5676653.3662 E_long   =  -7403846.3768 Press    =        31.0007 
Volume   =   8325247.1458 
---------------- Step     9650 ----- CPU =    385.9386 (sec) ----------------
TotEng   =   -683590.5966 KinEng   =    581293.8887 Temp     =       300.2070 
PotEng   =  -1264884.4853 E_bond   =     69793.8103 E_angle  =    299771.9321 
E_dihed  =    142107.5176 E_impro  =      6102.4015 E_vdwl   =    -55187.8957 
E_coul   =   5676356.4367 E_long   =  -7403828.6877 Press    =        -7.7221 
Volume   =   8324921.9911 
---------------- Step     9700 ----- CPU =    387.9592 (sec) ----------------
TotEng   =   -683914.2067 KinEng   =    580118.0867 Temp     =       299.5997 
PotEng   =  -1264032.2934 E_bond   =     69869.1634 E_angle  =    300275.6524 
E_dihed  =    142126.2201 E_impro  =      6141.5921 E_vdwl   =    -55187.6667 
E_coul   =   5676534.2183 E_long   =  -7403791.4729 Press    =       -26.9389 
Volume   =   8325211.3607 
---------------- Step     9750 ----- CPU =    389.9405 (sec) ----------------
TotEng   =   -683926.0377 KinEng   =    581851.2324 Temp     =       300.4948 
PotEng   =  -1265777.2700 E_bond   =     70039.6645 E_angle  =    299764.4991 
E_dihed  =    142030.7199 E_impro  =      6007.3491 E_vdwl   =    -56479.6562 
E_coul   =   5676710.1124 E_long   =  -7403849.9588 Press    =      -118.3759 
Volume   =   8325855.0698 
---------------- Step     9800 ----- CPU =    391.9647 (sec) ----------------
TotEng   =   -684056.8584 KinEng   =    580404.6789 Temp     =       299.7478 
PotEng   =  -1264461.5373 E_bond   =     69956.6556 E_angle  =    300345.8355 
E_dihed  =    142157.1802 E_impro  =      6058.3047 E_vdwl   =    -56003.4477 
E_coul   =   5676905.2209 E_long   =  -7403881.2866 Press    =        12.1442 
Volume   =   8326116.0129 
---------------- Step     9850 ----- CPU =    393.9410 (sec) ----------------
TotEng   =   -683850.8789 KinEng   =    580393.9363 Temp     =       299.7422 
PotEng   =  -1264244.8152 E_bond   =     70238.9508 E_angle  =    300286.1962 
E_dihed  =    142016.9522 E_impro  =      6117.0596 E_vdwl   =    -55855.1786 
E_coul   =   5676807.4320 E_long   =  -7403856.2273 Press    =       -88.4735 
Volume   =   8325088.9804 
---------------- Step     9900 ----- CPU =    395.9241 (sec) ----------------
TotEng   =   -683992.5114 KinEng   =    580460.9857 Temp     =       299.7768 
PotEng   =  -1264453.4971 E_bond   =     69934.3754 E_angle  =    300607.0442 
E_dihed  =    141923.2585 E_impro  =      5997.1084 E_vdwl   =    -55231.1628 
E_coul   =   5676133.2690 E_long   =  -7403817.3898 Press    =       -29.1424 
Volume   =   8323497.2947 
---------------- Step     9950 ----- CPU =    397.9447 (sec) ----------------
TotEng   =   -683918.0558 KinEng   =    580671.9068 Temp     =       299.8858 
PotEng   =  -1264589.9626 E_bond   =     70108.8823 E_angle  =    300731.1749 
E_dihed  =    141896.9966 E_impro  =      6004.4503 E_vdwl   =    -56108.3681 
E_coul   =   5676624.1452 E_long   =  -7403847.2437 Press    =       -46.0653 
Volume   =   8322000.9424 
---------------- Step    10000 ----- CPU =    399.9247 (sec) ----------------
TotEng   =   -683929.0283 KinEng   =    580644.9374 Temp     =       299.8718 
PotEng   =  -1264573.9657 E_bond   =     69956.9077 E_angle  =    299995.3070 
E_dihed  =    142133.4784 E_impro  =      6143.3753 E_vdwl   =    -55773.6572 
E_coul   =   5676794.4802 E_long   =  -7403823.8570 Press    =       -60.1453 
Volume   =   8320385.2742 
Loop time of 399.925 on 64 procs for 10000 steps with 864000 atoms

Performance: 4.321 ns/day, 5.555 hours/ns, 25.005 timesteps/s
98.9% CPU use with 64 MPI tasks x 1 OpenMP threads

MPI task timing breakdown:
Section |  min time  |  avg time  |  max time  |%varavg| %total
---------------------------------------------------------------
Pair    | 216.59     | 223.34     | 229.01     |  20.5 | 55.84
Bond    | 10.504     | 13.863     | 17.212     |  66.9 |  3.47
Kspace  | 43.254     | 49.864     | 57.009     |  43.2 | 12.47
Neigh   | 34.823     | 34.981     | 35.121     |   1.3 |  8.75
Comm    | 24.797     | 27.204     | 29.34      |  27.4 |  6.80
Output  | 0.01438    | 0.014535   | 0.01905    |   0.5 |  0.00
Modify  | 42.986     | 46.304     | 50.172     |  39.7 | 11.58
Other   |            | 4.358      |            |       |  1.09

Nlocal:          13500 ave       13679 max       13264 min
Histogram: 1 1 4 11 4 12 11 15 3 2
Nghost:        29979.2 ave       30237 max       29697 min
Histogram: 3 3 9 5 10 8 6 11 5 4
Neighs:    5.07365e+06 ave 5.22014e+06 max 4.95884e+06 min
Histogram: 2 7 10 9 12 7 8 8 0 1

Total # of neighbors = 3.2471328e+08
Ave neighs/atom = 375.82556
Ave special neighs/atom = 7.431875
Neighbor list builds = 1280
Dangerous builds = 0
Total wall time: 0:06:40
Intel(R) VTune(TM) Profiler 2022.2.0 collection completed successfully. Use the "aps --report /home/ubuntu/lammps/bench/aps_result_20220704" command to generate textual and HTML reports for the profiling session.
