LAMMPS (7 Jan 2022)
  using 1 OpenMP thread(s) per MPI task
Reading data file ...
  orthogonal box = (-27.5 -38.5 -36.3646) to (27.5 38.5 36.3615)
  1 by 2 by 1 MPI processor grid
  reading atoms ...
  32000 atoms
  reading velocities ...
  32000 velocities
  scanning bonds ...
  4 = max bonds/atom
  scanning angles ...
  8 = max angles/atom
  scanning dihedrals ...
  18 = max dihedrals/atom
  scanning impropers ...
  2 = max impropers/atom
  reading bonds ...
  27723 bonds
  reading angles ...
  40467 angles
  reading dihedrals ...
  56829 dihedrals
  reading impropers ...
  1034 impropers
Finding 1-2 1-3 1-4 neighbors ...
  special bond factors lj:    0        0        0       
  special bond factors coul:  0        0        0       
     4 = max # of 1-2 neighbors
    12 = max # of 1-3 neighbors
    24 = max # of 1-4 neighbors
    26 = max # of special neighbors
  special bonds CPU = 0.011 seconds
  read_data CPU = 0.243 seconds
Replicating atoms ...
  orthogonal box = (-27.5 -38.5 -36.3646) to (82.5 115.5 109.0876)
  1 by 2 by 1 MPI processor grid
  256000 atoms
  221784 bonds
  323736 angles
  454632 dihedrals
  8272 impropers
Finding 1-2 1-3 1-4 neighbors ...
  special bond factors lj:    0        0        0       
  special bond factors coul:  0        0        0       
     4 = max # of 1-2 neighbors
    12 = max # of 1-3 neighbors
    24 = max # of 1-4 neighbors
    26 = max # of special neighbors
  special bonds CPU = 0.083 seconds
  replicate CPU = 0.143 seconds
Finding SHAKE clusters ...
   12936 = # of size 2 clusters
   29064 = # of size 3 clusters
    5976 = # of size 4 clusters
   33864 = # of frozen angles
  find clusters CPU = 0.034 seconds
PPPM initialization ...
  using 12-bit tables for long-range coulomb (../kspace.cpp:340)
  G vector (1/distance) = 0.25045586
  grid = 45 60 60
  stencil order = 7
  estimated absolute RMS force accuracy = 0.032785255
  estimated relative force accuracy = 9.8731821e-05
  using single precision MKL FFT
  3d grid and FFT values/proc = 128908 81000
----------------------------------------------------------
Using INTEL Package without Coprocessor.
Compiler: Intel Classic C++ 20.21.5 / Intel(R) C++ g++ 9.3 mode
SIMD compiler directives: Enabled
Precision: mixed
----------------------------------------------------------
  generated 2278 of 2278 mixed pair_coeff terms from arithmetic mixing rule
Neighbor list info ...
  update every 1 steps, delay 5 steps, check yes
  max neighbors/atom: 2000, page size: 100000
  master list distance cutoff = 12
  ghost atom cutoff = 12
  binsize = 6, bins = 19 26 25
  1 neighbor lists, perpetual/occasional/extra = 1 0 0
  (1) pair lj/charmm/coul/long/intel, perpetual
      attributes: half, newton on, intel
      pair build: half/bin/newton/intel
      stencil: half/bin/3d
      bin: intel
Setting up Verlet run ...
  Unit style    : real
  Current step  : 0
  Time step     : 2
Per MPI rank memory allocation (min/avg/max) = 1381 | 1381 | 1381 Mbytes
---------------- Step        0 ----- CPU =      0.0000 (sec) ----------------
TotEng   =   -202864.5380 KinEng   =    171558.6503 Temp     =       299.0288 
PotEng   =   -374423.1882 E_bond   =     20303.9370 E_angle  =     87370.9630 
E_dihed  =     41694.2900 E_impro  =      1708.1116 E_vdwl   =    -18462.9090 
E_coul   =   1670250.1020 E_long   =  -2177287.6828 Press    =      -148.4154 
Volume   =   2463960.2680 
---------------- Step       50 ----- CPU =     12.9235 (sec) ----------------
TotEng   =   -202648.8937 KinEng   =    172008.0352 Temp     =       299.8121 
PotEng   =   -374656.9289 E_bond   =     19774.0719 E_angle  =     86693.3928 
E_dihed  =     41917.3331 E_impro  =      1816.9814 E_vdwl   =    -15944.9407 
E_coul   =   1668429.0047 E_long   =  -2177342.7720 Press    =       238.9808 
Volume   =   2464255.7501 
---------------- Step      100 ----- CPU =     25.8754 (sec) ----------------
TotEng   =   -202321.9745 KinEng   =    172719.9014 Temp     =       301.0529 
PotEng   =   -375041.8760 E_bond   =     20544.0651 E_angle  =     86258.1144 
E_dihed  =     41590.0907 E_impro  =      1734.0872 E_vdwl   =    -15193.5681 
E_coul   =   1667326.5084 E_long   =  -2177301.1736 Press    =        13.7821 
Volume   =   2465083.9258 
---------------- Step      150 ----- CPU =     38.8578 (sec) ----------------
TotEng   =   -202065.0938 KinEng   =    172251.7508 Temp     =       300.2369 
PotEng   =   -374316.8446 E_bond   =     20454.2052 E_angle  =     86834.9595 
E_dihed  =     42116.8809 E_impro  =      1624.5586 E_vdwl   =    -16578.3725 
E_coul   =   1668456.4934 E_long   =  -2177225.5697 Press    =       245.4847 
Volume   =   2468149.4468 
---------------- Step      200 ----- CPU =     51.6191 (sec) ----------------
TotEng   =   -200637.8481 KinEng   =    172237.5814 Temp     =       300.2122 
PotEng   =   -372875.4295 E_bond   =     19915.6698 E_angle  =     88600.7778 
E_dihed  =     41769.2347 E_impro  =      1860.1668 E_vdwl   =    -17200.1845 
E_coul   =   1669423.4307 E_long   =  -2177244.5248 Press    =        44.9219 
Volume   =   2471991.0807 
---------------- Step      250 ----- CPU =     64.6317 (sec) ----------------
TotEng   =   -199652.5427 KinEng   =    172659.6931 Temp     =       300.9479 
PotEng   =   -372312.2358 E_bond   =     20334.9744 E_angle  =     88801.1617 
E_dihed  =     41952.8646 E_impro  =      1700.5939 E_vdwl   =    -17041.4811 
E_coul   =   1669310.6111 E_long   =  -2177370.9603 Press    =      -139.8302 
Volume   =   2475151.6675 
---------------- Step      300 ----- CPU =     77.6722 (sec) ----------------
TotEng   =   -200326.8065 KinEng   =    171642.9354 Temp     =       299.1757 
PotEng   =   -371969.7419 E_bond   =     20480.7426 E_angle  =     87358.4060 
E_dihed  =     41773.1663 E_impro  =      1784.9856 E_vdwl   =    -17931.9378 
E_coul   =   1671748.1877 E_long   =  -2177183.2923 Press    =      -417.9650 
Volume   =   2477561.4735 
---------------- Step      350 ----- CPU =     90.7257 (sec) ----------------
TotEng   =   -201572.8535 KinEng   =    172284.9227 Temp     =       300.2947 
PotEng   =   -373857.7763 E_bond   =     20579.2741 E_angle  =     87538.0893 
E_dihed  =     42037.8222 E_impro  =      1663.8465 E_vdwl   =    -17560.3896 
E_coul   =   1669095.4136 E_long   =  -2177211.8324 Press    =      -430.9990 
Volume   =   2478535.2235 
---------------- Step      400 ----- CPU =    103.7779 (sec) ----------------
TotEng   =   -202628.8205 KinEng   =    171528.1054 Temp     =       298.9756 
PotEng   =   -374156.9260 E_bond   =     20242.2221 E_angle  =     87250.4048 
E_dihed  =     41834.8008 E_impro  =      1745.2571 E_vdwl   =    -16530.7305 
E_coul   =   1668586.2715 E_long   =  -2177285.1518 Press    =       151.6537 
Volume   =   2478378.7215 
---------------- Step      450 ----- CPU =    116.8405 (sec) ----------------
TotEng   =   -202865.5563 KinEng   =    171770.1820 Temp     =       299.3975 
PotEng   =   -374635.7383 E_bond   =     19920.2853 E_angle  =     87121.2586 
E_dihed  =     42119.0914 E_impro  =      1795.3821 E_vdwl   =    -16454.0992 
E_coul   =   1668060.1730 E_long   =  -2177197.8293 Press    =       281.6379 
Volume   =   2478094.9471 
---------------- Step      500 ----- CPU =    129.9181 (sec) ----------------
TotEng   =   -200914.4483 KinEng   =    171993.7999 Temp     =       299.7873 
PotEng   =   -372908.2482 E_bond   =     20605.8945 E_angle  =     87284.9176 
E_dihed  =     42051.0030 E_impro  =      1759.8220 E_vdwl   =    -16407.7757 
E_coul   =   1668956.4228 E_long   =  -2177158.5324 Press    =      -151.1256 
Volume   =   2478374.5666 
---------------- Step      550 ----- CPU =    142.9906 (sec) ----------------
TotEng   =   -198727.5866 KinEng   =    173321.2895 Temp     =       302.1011 
PotEng   =   -372048.8761 E_bond   =     20286.3630 E_angle  =     87517.6703 
E_dihed  =     41656.4090 E_impro  =      1861.2140 E_vdwl   =    -16402.3023 
E_coul   =   1670260.8621 E_long   =  -2177229.0922 Press    =       349.6747 
Volume   =   2479572.4513 
---------------- Step      600 ----- CPU =    156.3316 (sec) ----------------
TotEng   =   -198262.8837 KinEng   =    173544.6095 Temp     =       302.4903 
PotEng   =   -371807.4932 E_bond   =     20441.9735 E_angle  =     88186.7276 
E_dihed  =     42012.7683 E_impro  =      1764.9455 E_vdwl   =    -17604.5191 
E_coul   =   1670616.2045 E_long   =  -2177225.5935 Press    =         7.0192 
Volume   =   2481864.2934 
---------------- Step      650 ----- CPU =    169.4248 (sec) ----------------
TotEng   =   -199882.8908 KinEng   =    172669.9720 Temp     =       300.9658 
PotEng   =   -372552.8629 E_bond   =     20322.6134 E_angle  =     86792.2718 
E_dihed  =     42006.9422 E_impro  =      1722.4746 E_vdwl   =    -16740.2252 
E_coul   =   1670572.4212 E_long   =  -2177229.3608 Press    =      -100.0091 
Volume   =   2483362.2477 
---------------- Step      700 ----- CPU =    182.5174 (sec) ----------------
TotEng   =   -201457.8257 KinEng   =    171725.4289 Temp     =       299.3195 
PotEng   =   -373183.2546 E_bond   =     19945.1129 E_angle  =     87386.7937 
E_dihed  =     42106.4559 E_impro  =      1750.7122 E_vdwl   =    -17845.7480 
E_coul   =   1670763.0243 E_long   =  -2177289.6055 Press    =       128.2085 
Volume   =   2484639.4753 
---------------- Step      750 ----- CPU =    195.6163 (sec) ----------------
TotEng   =   -201895.8988 KinEng   =    171343.5386 Temp     =       298.6539 
PotEng   =   -373239.4374 E_bond   =     20409.4037 E_angle  =     87978.3244 
E_dihed  =     42000.6191 E_impro  =      1710.3715 E_vdwl   =    -17530.4197 
E_coul   =   1669466.2048 E_long   =  -2177273.9413 Press    =        42.3967 
Volume   =   2485266.1569 
---------------- Step      800 ----- CPU =    208.7184 (sec) ----------------
TotEng   =   -201440.4134 KinEng   =    171485.8490 Temp     =       298.9019 
PotEng   =   -372926.2624 E_bond   =     20072.5893 E_angle  =     88205.8229 
E_dihed  =     42103.1824 E_impro  =      1759.3973 E_vdwl   =    -17148.4425 
E_coul   =   1669309.0085 E_long   =  -2177227.8202 Press    =       -37.0068 
Volume   =   2484767.1154 
---------------- Step      850 ----- CPU =    221.8223 (sec) ----------------
TotEng   =   -200086.8184 KinEng   =    171891.5367 Temp     =       299.6090 
PotEng   =   -371978.3550 E_bond   =     20291.9999 E_angle  =     88061.1259 
E_dihed  =     42248.7148 E_impro  =      1781.3725 E_vdwl   =    -16711.7990 
E_coul   =   1669627.7173 E_long   =  -2177277.4864 Press    =        35.8589 
Volume   =   2483461.7051 
---------------- Step      900 ----- CPU =    234.9215 (sec) ----------------
TotEng   =   -198776.6710 KinEng   =    172790.1740 Temp     =       301.1754 
PotEng   =   -371566.8449 E_bond   =     20218.9287 E_angle  =     88155.6081 
E_dihed  =     42299.2649 E_impro  =      1849.8486 E_vdwl   =    -17053.9770 
E_coul   =   1670228.0999 E_long   =  -2177264.6182 Press    =       131.2432 
Volume   =   2481382.3195 
---------------- Step      950 ----- CPU =    248.2846 (sec) ----------------
TotEng   =   -198843.3382 KinEng   =    172858.4027 Temp     =       301.2943 
PotEng   =   -371701.7409 E_bond   =     20421.6236 E_angle  =     88379.4573 
E_dihed  =     42158.3911 E_impro  =      1870.1670 E_vdwl   =    -16779.1625 
E_coul   =   1669496.8934 E_long   =  -2177249.1108 Press    =      -104.5154 
Volume   =   2479323.2983 
---------------- Step     1000 ----- CPU =    261.4240 (sec) ----------------
TotEng   =   -200396.3662 KinEng   =    171861.6327 Temp     =       299.5569 
PotEng   =   -372257.9990 E_bond   =     20518.0449 E_angle  =     88256.0548 
E_dihed  =     42046.6024 E_impro  =      1758.2807 E_vdwl   =    -16921.7097 
E_coul   =   1669328.9593 E_long   =  -2177244.2313 Press    =         9.2408 
Volume   =   2477137.7624 
---------------- Step     1050 ----- CPU =    274.5573 (sec) ----------------
TotEng   =   -201955.2350 KinEng   =    172035.4016 Temp     =       299.8598 
PotEng   =   -373990.6366 E_bond   =     20306.5347 E_angle  =     87379.8530 
E_dihed  =     41958.0404 E_impro  =      1797.4936 E_vdwl   =    -16547.6056 
E_coul   =   1668416.8586 E_long   =  -2177301.8114 Press    =       -19.3051 
Volume   =   2475266.6116 
---------------- Step     1100 ----- CPU =    287.7017 (sec) ----------------
TotEng   =   -202590.3658 KinEng   =    171578.9530 Temp     =       299.0642 
PotEng   =   -374169.3187 E_bond   =     20277.5876 E_angle  =     87714.9828 
E_dihed  =     41939.7255 E_impro  =      1839.4671 E_vdwl   =    -16775.0308 
E_coul   =   1668148.4519 E_long   =  -2177314.5029 Press    =       189.4372 
Volume   =   2474009.3139 
---------------- Step     1150 ----- CPU =    300.8455 (sec) ----------------
TotEng   =   -201951.9152 KinEng   =    171468.8439 Temp     =       298.8723 
PotEng   =   -373420.7591 E_bond   =     20535.5954 E_angle  =     87746.6113 
E_dihed  =     42028.1151 E_impro  =      1733.3672 E_vdwl   =    -16607.1797 
E_coul   =   1668407.4276 E_long   =  -2177264.6959 Press    =        67.7029 
Volume   =   2473447.4139 
---------------- Step     1200 ----- CPU =    314.2566 (sec) ----------------
TotEng   =   -200586.2186 KinEng   =    172454.3977 Temp     =       300.5901 
PotEng   =   -373040.6164 E_bond   =     20648.7572 E_angle  =     87891.5286 
E_dihed  =     42066.7239 E_impro  =      1784.8870 E_vdwl   =    -17349.7611 
E_coul   =   1669163.9517 E_long   =  -2177246.7036 Press    =       -94.3694 
Volume   =   2473430.5266 
---------------- Step     1250 ----- CPU =    327.1780 (sec) ----------------
TotEng   =   -199693.8034 KinEng   =    172652.0628 Temp     =       300.9346 
PotEng   =   -372345.8662 E_bond   =     20534.5356 E_angle  =     88072.0092 
E_dihed  =     42195.9841 E_impro  =      1759.1357 E_vdwl   =    -17180.9330 
E_coul   =   1669535.5377 E_long   =  -2177262.1356 Press    =        77.2990 
Volume   =   2473822.5927 
---------------- Step     1300 ----- CPU =    340.5839 (sec) ----------------
TotEng   =   -199895.9170 KinEng   =    172649.8414 Temp     =       300.9308 
PotEng   =   -372545.7584 E_bond   =     20656.5381 E_angle  =     87664.8785 
E_dihed  =     42158.0672 E_impro  =      1858.5531 E_vdwl   =    -17504.8063 
E_coul   =   1669920.3114 E_long   =  -2177299.3004 Press    =      -117.5089 
Volume   =   2474482.1336 
---------------- Step     1350 ----- CPU =    353.7490 (sec) ----------------
TotEng   =   -200353.2536 KinEng   =    172048.8610 Temp     =       299.8832 
PotEng   =   -372402.1146 E_bond   =     20706.4754 E_angle  =     88227.3290 
E_dihed  =     42166.1923 E_impro  =      1816.8992 E_vdwl   =    -16881.1843 
E_coul   =   1668806.7342 E_long   =  -2177244.5604 Press    =       -97.7518 
Volume   =   2475156.7351 
---------------- Step     1400 ----- CPU =    366.8955 (sec) ----------------
TotEng   =   -200943.8403 KinEng   =    172545.7416 Temp     =       300.7493 
PotEng   =   -373489.5819 E_bond   =     20263.0626 E_angle  =     87631.1256 
E_dihed  =     42190.5493 E_impro  =      1799.3646 E_vdwl   =    -17377.6671 
E_coul   =   1669302.6119 E_long   =  -2177298.6287 Press    =       -43.5861 
Volume   =   2475916.3166 
---------------- Step     1450 ----- CPU =    380.2976 (sec) ----------------
TotEng   =   -201462.1819 KinEng   =    171899.2325 Temp     =       299.6224 
PotEng   =   -373361.4144 E_bond   =     20533.4783 E_angle  =     87816.9532 
E_dihed  =     42043.9001 E_impro  =      1742.6372 E_vdwl   =    -16817.0499 
E_coul   =   1668599.8654 E_long   =  -2177281.1987 Press    =      -131.7970 
Volume   =   2476277.2995 
---------------- Step     1500 ----- CPU =    393.4431 (sec) ----------------
TotEng   =   -201532.8625 KinEng   =    171643.3921 Temp     =       299.1765 
PotEng   =   -373176.2547 E_bond   =     20453.1308 E_angle  =     87671.1431 
E_dihed  =     42182.1473 E_impro  =      1791.5330 E_vdwl   =    -16458.8826 
E_coul   =   1668462.7737 E_long   =  -2177278.1001 Press    =       -29.2675 
Volume   =   2476568.0235 
---------------- Step     1550 ----- CPU =    406.6008 (sec) ----------------
TotEng   =   -200835.0820 KinEng   =    172265.4780 Temp     =       300.2608 
PotEng   =   -373100.5600 E_bond   =     20402.4603 E_angle  =     88313.2209 
E_dihed  =     42191.8999 E_impro  =      1770.4588 E_vdwl   =    -17251.8675 
E_coul   =   1668699.4502 E_long   =  -2177226.1827 Press    =       -57.2811 
Volume   =   2477281.5299 
---------------- Step     1600 ----- CPU =    419.7479 (sec) ----------------
TotEng   =   -200211.1336 KinEng   =    172612.8438 Temp     =       300.8663 
PotEng   =   -372823.9774 E_bond   =     20559.6863 E_angle  =     88139.3420 
E_dihed  =     42213.6740 E_impro  =      1751.6391 E_vdwl   =    -16687.3893 
E_coul   =   1668477.5379 E_long   =  -2177278.4676 Press    =        16.8579 
Volume   =   2477285.0256 
---------------- Step     1650 ----- CPU =    432.8984 (sec) ----------------
TotEng   =   -200321.5260 KinEng   =    172350.4083 Temp     =       300.4088 
PotEng   =   -372671.9343 E_bond   =     20487.9341 E_angle  =     88238.3455 
E_dihed  =     42062.7417 E_impro  =      1815.4076 E_vdwl   =    -16873.3725 
E_coul   =   1668887.9205 E_long   =  -2177290.9113 Press    =      -157.2035 
Volume   =   2477107.7691 
---------------- Step     1700 ----- CPU =    446.0460 (sec) ----------------
TotEng   =   -200835.2056 KinEng   =    172567.5329 Temp     =       300.7873 
PotEng   =   -373402.7385 E_bond   =     20375.5769 E_angle  =     87800.6653 
E_dihed  =     42091.2871 E_impro  =      1781.7174 E_vdwl   =    -17162.2248 
E_coul   =   1669014.2691 E_long   =  -2177304.0295 Press    =       103.0223 
Volume   =   2476661.1699 
---------------- Step     1750 ----- CPU =    459.1841 (sec) ----------------
TotEng   =   -201421.6970 KinEng   =    171953.2858 Temp     =       299.7167 
PotEng   =   -373374.9828 E_bond   =     20489.7282 E_angle  =     88213.0243 
E_dihed  =     41986.1948 E_impro  =      1720.0656 E_vdwl   =    -16849.1692 
E_coul   =   1668363.5532 E_long   =  -2177298.3797 Press    =        39.0922 
Volume   =   2475897.5518 
---------------- Step     1800 ----- CPU =    472.3468 (sec) ----------------
TotEng   =   -201688.3718 KinEng   =    171692.4986 Temp     =       299.2621 
PotEng   =   -373380.8704 E_bond   =     20659.2171 E_angle  =     87734.0341 
E_dihed  =     42212.1761 E_impro  =      1757.8747 E_vdwl   =    -16756.9160 
E_coul   =   1668277.3196 E_long   =  -2177264.5761 Press    =      -248.1586 
Volume   =   2474737.7398 
---------------- Step     1850 ----- CPU =    485.4939 (sec) ----------------
TotEng   =   -201400.5897 KinEng   =    171983.1680 Temp     =       299.7687 
PotEng   =   -373383.7577 E_bond   =     20352.0753 E_angle  =     88185.4622 
E_dihed  =     42015.7434 E_impro  =      1841.5324 E_vdwl   =    -16368.3770 
E_coul   =   1667860.5873 E_long   =  -2177270.7813 Press    =       195.2376 
Volume   =   2473778.2144 
---------------- Step     1900 ----- CPU =    498.9049 (sec) ----------------
TotEng   =   -201164.0851 KinEng   =    172154.8509 Temp     =       300.0680 
PotEng   =   -373318.9360 E_bond   =     20584.8679 E_angle  =     88044.5173 
E_dihed  =     42052.9843 E_impro  =      1763.2536 E_vdwl   =    -16736.8028 
E_coul   =   1668233.6527 E_long   =  -2177261.4092 Press    =        36.1669 
Volume   =   2473386.8325 
---------------- Step     1950 ----- CPU =    512.0822 (sec) ----------------
TotEng   =   -201094.1057 KinEng   =    171893.1611 Temp     =       299.6119 
PotEng   =   -372987.2668 E_bond   =     20452.9359 E_angle  =     88052.1016 
E_dihed  =     42166.1456 E_impro  =      1770.0580 E_vdwl   =    -16721.2946 
E_coul   =   1668590.9570 E_long   =  -2177298.1703 Press    =       -71.3363 
Volume   =   2473504.0686 
---------------- Step     2000 ----- CPU =    525.2451 (sec) ----------------
TotEng   =   -201077.2045 KinEng   =    172286.1065 Temp     =       300.2968 
PotEng   =   -373363.3110 E_bond   =     20554.2989 E_angle  =     88247.4424 
E_dihed  =     42079.2919 E_impro  =      1825.0725 E_vdwl   =    -17132.2071 
E_coul   =   1668332.5087 E_long   =  -2177269.7183 Press    =       -56.1317 
Volume   =   2473762.3674 
---------------- Step     2050 ----- CPU =    538.4201 (sec) ----------------
TotEng   =   -201187.2238 KinEng   =    172138.2766 Temp     =       300.0391 
PotEng   =   -373325.5005 E_bond   =     20499.8637 E_angle  =     88148.3936 
E_dihed  =     42241.8513 E_impro  =      1782.2990 E_vdwl   =    -16838.2781 
E_coul   =   1668133.3058 E_long   =  -2177292.9358 Press    =        20.0477 
Volume   =   2474065.1116 
---------------- Step     2100 ----- CPU =    551.5969 (sec) ----------------
TotEng   =   -201214.8094 KinEng   =    172122.3960 Temp     =       300.0114 
PotEng   =   -373337.2054 E_bond   =     20574.1806 E_angle  =     88182.2941 
E_dihed  =     42007.2248 E_impro  =      1772.4512 E_vdwl   =    -16359.2326 
E_coul   =   1667795.3827 E_long   =  -2177309.5062 Press    =       -43.5764 
Volume   =   2474231.8303 
---------------- Step     2150 ----- CPU =    564.7799 (sec) ----------------
TotEng   =   -201411.5112 KinEng   =    172291.4842 Temp     =       300.3061 
PotEng   =   -373702.9954 E_bond   =     20502.8186 E_angle  =     88149.3990 
E_dihed  =     42054.8783 E_impro  =      1850.9148 E_vdwl   =    -16928.6835 
E_coul   =   1667954.7020 E_long   =  -2177287.0245 Press    =       -87.9351 
Volume   =   2474424.9851 
---------------- Step     2200 ----- CPU =    577.9468 (sec) ----------------
TotEng   =   -201595.8425 KinEng   =    172012.8997 Temp     =       299.8206 
PotEng   =   -373608.7422 E_bond   =     20517.1573 E_angle  =     88073.7314 
E_dihed  =     42031.2186 E_impro  =      1852.4799 E_vdwl   =    -16822.6426 
E_coul   =   1668054.2276 E_long   =  -2177314.9144 Press    =       -83.8026 
Volume   =   2474266.9560 
---------------- Step     2250 ----- CPU =    591.1179 (sec) ----------------
TotEng   =   -201437.1027 KinEng   =    172373.1264 Temp     =       300.4484 
PotEng   =   -373810.2290 E_bond   =     20268.7118 E_angle  =     88035.5933 
E_dihed  =     42153.4728 E_impro  =      1790.7791 E_vdwl   =    -16479.3704 
E_coul   =   1667746.2457 E_long   =  -2177325.6613 Press    =       145.6058 
Volume   =   2473745.0066 
---------------- Step     2300 ----- CPU =    604.2892 (sec) ----------------
TotEng   =   -201282.3715 KinEng   =    172160.9476 Temp     =       300.0786 
PotEng   =   -373443.3191 E_bond   =     20609.0634 E_angle  =     88043.5205 
E_dihed  =     42092.0848 E_impro  =      1721.1443 E_vdwl   =    -16602.9175 
E_coul   =   1667996.1590 E_long   =  -2177302.3737 Press    =      -126.3924 
Volume   =   2472946.1959 
---------------- Step     2350 ----- CPU =    617.4557 (sec) ----------------
TotEng   =   -201266.8612 KinEng   =    172127.3510 Temp     =       300.0201 
PotEng   =   -373394.2122 E_bond   =     20632.3054 E_angle  =     87853.0360 
E_dihed  =     41948.3211 E_impro  =      1793.6263 E_vdwl   =    -16050.1114 
E_coul   =   1667694.8343 E_long   =  -2177266.2239 Press    =       105.2299 
Volume   =   2472045.5542 
---------------- Step     2400 ----- CPU =    630.3714 (sec) ----------------
TotEng   =   -201488.9031 KinEng   =    172072.5737 Temp     =       299.9246 
PotEng   =   -373561.4768 E_bond   =     20272.8417 E_angle  =     88046.4850 
E_dihed  =     42243.3435 E_impro  =      1753.2423 E_vdwl   =    -16410.3229 
E_coul   =   1667837.5212 E_long   =  -2177304.5876 Press    =         7.3086 
Volume   =   2471825.9086 
---------------- Step     2450 ----- CPU =    643.8130 (sec) ----------------
TotEng   =   -201504.2363 KinEng   =    171629.6403 Temp     =       299.1525 
PotEng   =   -373133.8765 E_bond   =     20634.1682 E_angle  =     88199.1385 
E_dihed  =     42129.0769 E_impro  =      1764.8502 E_vdwl   =    -16580.3922 
E_coul   =   1667984.6773 E_long   =  -2177265.3954 Press    =       -11.8128 
Volume   =   2472246.7727 
---------------- Step     2500 ----- CPU =    657.0056 (sec) ----------------
TotEng   =   -201115.2856 KinEng   =    172115.8161 Temp     =       299.9999 
PotEng   =   -373231.1017 E_bond   =     20673.7063 E_angle  =     88201.2269 
E_dihed  =     41977.9933 E_impro  =      1760.8025 E_vdwl   =    -16446.1435 
E_coul   =   1667873.2212 E_long   =  -2177271.9083 Press    =        58.9562 
Volume   =   2472691.8024 
---------------- Step     2550 ----- CPU =    669.9320 (sec) ----------------
TotEng   =   -200780.6511 KinEng   =    172270.4810 Temp     =       300.2695 
PotEng   =   -373051.1321 E_bond   =     20530.9963 E_angle  =     88347.0835 
E_dihed  =     41982.6481 E_impro  =      1792.6856 E_vdwl   =    -16749.0355 
E_coul   =   1668338.4103 E_long   =  -2177293.9205 Press    =       -35.4867 
Volume   =   2473206.0327 
---------------- Step     2600 ----- CPU =    683.1099 (sec) ----------------
TotEng   =   -200757.1173 KinEng   =    172121.1919 Temp     =       300.0093 
PotEng   =   -372878.3092 E_bond   =     20659.8968 E_angle  =     88661.4540 
E_dihed  =     42090.9119 E_impro  =      1741.1262 E_vdwl   =    -17449.2638 
E_coul   =   1668680.6318 E_long   =  -2177263.0662 Press    =      -136.2181 
Volume   =   2473612.5906 
---------------- Step     2650 ----- CPU =    696.2942 (sec) ----------------
TotEng   =   -201063.1121 KinEng   =    172215.2715 Temp     =       300.1733 
PotEng   =   -373278.3836 E_bond   =     20631.8873 E_angle  =     87864.0949 
E_dihed  =     42017.7543 E_impro  =      1813.9635 E_vdwl   =    -16607.5705 
E_coul   =   1668274.4019 E_long   =  -2177272.9149 Press    =       144.0434 
Volume   =   2473459.6131 
---------------- Step     2700 ----- CPU =    709.4703 (sec) ----------------
TotEng   =   -201377.7022 KinEng   =    171978.7393 Temp     =       299.7610 
PotEng   =   -373356.4416 E_bond   =     20662.2859 E_angle  =     88305.2163 
E_dihed  =     42027.3781 E_impro  =      1788.2904 E_vdwl   =    -16715.2198 
E_coul   =   1667862.6328 E_long   =  -2177287.0253 Press    =      -149.7437 
Volume   =   2473239.0885 
---------------- Step     2750 ----- CPU =    722.6404 (sec) ----------------
TotEng   =   -201751.0807 KinEng   =    172075.0114 Temp     =       299.9288 
PotEng   =   -373826.0921 E_bond   =     20470.5624 E_angle  =     87975.0820 
E_dihed  =     42032.0694 E_impro  =      1829.4654 E_vdwl   =    -16622.5358 
E_coul   =   1667782.6971 E_long   =  -2177293.4326 Press    =        24.8550 
Volume   =   2472840.9350 
---------------- Step     2800 ----- CPU =    736.0757 (sec) ----------------
TotEng   =   -201740.3359 KinEng   =    171632.4534 Temp     =       299.1574 
PotEng   =   -373372.7892 E_bond   =     20496.6439 E_angle  =     88257.2322 
E_dihed  =     42179.2364 E_impro  =      1772.9303 E_vdwl   =    -16230.9506 
E_coul   =   1667427.3015 E_long   =  -2177275.1829 Press    =       -10.6694 
Volume   =   2472765.0689 
---------------- Step     2850 ----- CPU =    749.2552 (sec) ----------------
TotEng   =   -201275.6300 KinEng   =    172109.6833 Temp     =       299.9893 
PotEng   =   -373385.3133 E_bond   =     20565.9670 E_angle  =     88654.0503 
E_dihed  =     42061.6540 E_impro  =      1839.5124 E_vdwl   =    -16252.6540 
E_coul   =   1667065.2437 E_long   =  -2177319.0867 Press    =        -6.7351 
Volume   =   2472909.8516 
---------------- Step     2900 ----- CPU =    762.4289 (sec) ----------------
TotEng   =   -201115.3047 KinEng   =    172121.2295 Temp     =       300.0094 
PotEng   =   -373236.5342 E_bond   =     20565.7179 E_angle  =     88466.2018 
E_dihed  =     42183.3892 E_impro  =      1791.0054 E_vdwl   =    -16738.6026 
E_coul   =   1667775.9985 E_long   =  -2177280.2443 Press    =       -68.1036 
Volume   =   2473072.4366 
---------------- Step     2950 ----- CPU =    775.6000 (sec) ----------------
TotEng   =   -201107.9391 KinEng   =    172360.0742 Temp     =       300.4257 
PotEng   =   -373468.0133 E_bond   =     20530.5720 E_angle  =     88356.3539 
E_dihed  =     42184.3224 E_impro  =      1812.4983 E_vdwl   =    -17240.8309 
E_coul   =   1668162.5167 E_long   =  -2177273.4457 Press    =       -64.5475 
Volume   =   2472657.8175 
---------------- Step     3000 ----- CPU =    788.7909 (sec) ----------------
TotEng   =   -201220.5711 KinEng   =    172012.4884 Temp     =       299.8198 
PotEng   =   -373233.0595 E_bond   =     20539.6042 E_angle  =     88394.8815 
E_dihed  =     42056.6121 E_impro  =      1806.0508 E_vdwl   =    -16521.9855 
E_coul   =   1667763.1506 E_long   =  -2177271.3732 Press    =        72.0027 
Volume   =   2471662.6269 
---------------- Step     3050 ----- CPU =    802.2302 (sec) ----------------
TotEng   =   -201176.8291 KinEng   =    171788.2485 Temp     =       299.4290 
PotEng   =   -372965.0776 E_bond   =     20754.7885 E_angle  =     88533.1047 
E_dihed  =     42150.9926 E_impro  =      1777.0420 E_vdwl   =    -16597.5448 
E_coul   =   1667673.1710 E_long   =  -2177256.6317 Press    =       -29.5043 
Volume   =   2470540.8202 
---------------- Step     3100 ----- CPU =    815.4149 (sec) ----------------
TotEng   =   -201067.9351 KinEng   =    172564.0004 Temp     =       300.7811 
PotEng   =   -373631.9355 E_bond   =     20366.9453 E_angle  =     87901.1379 
E_dihed  =     42164.4198 E_impro  =      1836.6402 E_vdwl   =    -16904.0042 
E_coul   =   1668282.3651 E_long   =  -2177279.4396 Press    =        47.6842 
Volume   =   2469888.6156 
---------------- Step     3150 ----- CPU =    828.5955 (sec) ----------------
TotEng   =   -201249.1464 KinEng   =    172214.7100 Temp     =       300.1723 
PotEng   =   -373463.8564 E_bond   =     20535.9459 E_angle  =     88005.7509 
E_dihed  =     42287.0486 E_impro  =      1774.6213 E_vdwl   =    -16479.4142 
E_coul   =   1667684.5522 E_long   =  -2177272.3611 Press    =       -14.8107 
Volume   =   2469629.0895 
---------------- Step     3200 ----- CPU =    841.7854 (sec) ----------------
TotEng   =   -201552.3141 KinEng   =    172111.0948 Temp     =       299.9917 
PotEng   =   -373663.4089 E_bond   =     20571.3447 E_angle  =     88178.3274 
E_dihed  =     42251.2014 E_impro  =      1800.1602 E_vdwl   =    -16866.8723 
E_coul   =   1667675.3529 E_long   =  -2177272.9232 Press    =       -88.1404 
Volume   =   2469659.4343 
---------------- Step     3250 ----- CPU =    854.9740 (sec) ----------------
TotEng   =   -201796.0710 KinEng   =    171972.0830 Temp     =       299.7494 
PotEng   =   -373768.1540 E_bond   =     20598.0797 E_angle  =     88067.9793 
E_dihed  =     42307.0169 E_impro  =      1773.4925 E_vdwl   =    -17296.3930 
E_coul   =   1668066.1028 E_long   =  -2177284.4323 Press    =        32.2969 
Volume   =   2469344.2056 
---------------- Step     3300 ----- CPU =    868.1550 (sec) ----------------
TotEng   =   -201722.5937 KinEng   =    172449.3458 Temp     =       300.5813 
PotEng   =   -374171.9396 E_bond   =     20448.1797 E_angle  =     88048.5830 
E_dihed  =     41995.2695 E_impro  =      1791.8066 E_vdwl   =    -16843.3169 
E_coul   =   1667678.9423 E_long   =  -2177291.4037 Press    =       -74.5019 
Volume   =   2468731.8569 
---------------- Step     3350 ----- CPU =    881.3344 (sec) ----------------
TotEng   =   -201527.5515 KinEng   =    172599.2183 Temp     =       300.8425 
PotEng   =   -374126.7698 E_bond   =     20552.9659 E_angle  =     88293.4557 
E_dihed  =     42047.6352 E_impro  =      1802.1377 E_vdwl   =    -16642.1766 
E_coul   =   1667075.6529 E_long   =  -2177256.4407 Press    =       102.0629 
Volume   =   2468409.0318 
---------------- Step     3400 ----- CPU =    894.5111 (sec) ----------------
TotEng   =   -201576.9269 KinEng   =    172372.9611 Temp     =       300.4482 
PotEng   =   -373949.8880 E_bond   =     20713.3474 E_angle  =     88026.9014 
E_dihed  =     42237.5202 E_impro  =      1759.7134 E_vdwl   =    -17184.8923 
E_coul   =   1667798.4357 E_long   =  -2177300.9139 Press    =       -89.3059 
Volume   =   2468373.1801 
---------------- Step     3450 ----- CPU =    907.6951 (sec) ----------------
TotEng   =   -201672.8874 KinEng   =    171899.8011 Temp     =       299.6234 
PotEng   =   -373572.6885 E_bond   =     20634.6035 E_angle  =     87725.7878 
E_dihed  =     42187.4400 E_impro  =      1831.3838 E_vdwl   =    -16416.6066 
E_coul   =   1667727.5991 E_long   =  -2177262.8961 Press    =       129.5954 
Volume   =   2468380.8602 
---------------- Step     3500 ----- CPU =    920.8707 (sec) ----------------
TotEng   =   -201530.2715 KinEng   =    172326.5614 Temp     =       300.3673 
PotEng   =   -373856.8329 E_bond   =     20425.5711 E_angle  =     88001.1233 
E_dihed  =     42129.5659 E_impro  =      1774.6487 E_vdwl   =    -16709.1099 
E_coul   =   1667791.8204 E_long   =  -2177270.4524 Press    =        66.4810 
Volume   =   2468544.7096 
---------------- Step     3550 ----- CPU =    934.0681 (sec) ----------------
TotEng   =   -201357.6325 KinEng   =    171949.7119 Temp     =       299.7104 
PotEng   =   -373307.3444 E_bond   =     20554.3734 E_angle  =     88551.4586 
E_dihed  =     42235.7417 E_impro  =      1789.9741 E_vdwl   =    -16829.3216 
E_coul   =   1667641.2861 E_long   =  -2177250.8569 Press    =       -27.9448 
Volume   =   2469028.1599 
---------------- Step     3600 ----- CPU =    947.2451 (sec) ----------------
TotEng   =   -201339.2153 KinEng   =    172280.0288 Temp     =       300.2862 
PotEng   =   -373619.2442 E_bond   =     20565.0172 E_angle  =     88612.0780 
E_dihed  =     42008.6088 E_impro  =      1788.3599 E_vdwl   =    -16561.0109 
E_coul   =   1667251.4915 E_long   =  -2177283.7887 Press    =       -70.1061 
Volume   =   2469384.5772 
---------------- Step     3650 ----- CPU =    960.4478 (sec) ----------------
TotEng   =   -201359.8074 KinEng   =    172145.9422 Temp     =       300.0525 
PotEng   =   -373505.7496 E_bond   =     20729.7698 E_angle  =     88260.4190 
E_dihed  =     42001.2192 E_impro  =      1787.1304 E_vdwl   =    -16611.1726 
E_coul   =   1667590.0692 E_long   =  -2177263.1847 Press    =      -157.9750 
Volume   =   2469891.9920 
---------------- Step     3700 ----- CPU =    973.6244 (sec) ----------------
TotEng   =   -201399.6333 KinEng   =    171678.9357 Temp     =       299.2385 
PotEng   =   -373078.5691 E_bond   =     20694.7470 E_angle  =     88148.4866 
E_dihed  =     42000.5817 E_impro  =      1790.9572 E_vdwl   =    -16344.8000 
E_coul   =   1667891.7147 E_long   =  -2177260.2563 Press    =       139.6186 
Volume   =   2470105.2258 
---------------- Step     3750 ----- CPU =    986.8018 (sec) ----------------
TotEng   =   -201642.7767 KinEng   =    172254.4983 Temp     =       300.2417 
PotEng   =   -373897.2749 E_bond   =     20828.6474 E_angle  =     88134.9986 
E_dihed  =     42058.6275 E_impro  =      1761.1631 E_vdwl   =    -16744.0837 
E_coul   =   1667337.5274 E_long   =  -2177274.1552 Press    =      -143.6149 
Volume   =   2470676.5734 
---------------- Step     3800 ----- CPU =    999.9876 (sec) ----------------
TotEng   =   -201821.8012 KinEng   =    171974.2091 Temp     =       299.7531 
PotEng   =   -373796.0103 E_bond   =     20501.5751 E_angle  =     88178.9447 
E_dihed  =     42191.3047 E_impro  =      1764.0195 E_vdwl   =    -16717.7036 
E_coul   =   1667579.6954 E_long   =  -2177293.8461 Press    =       -37.8199 
Volume   =   2471376.6821 
---------------- Step     3850 ----- CPU =   1013.1539 (sec) ----------------
TotEng   =   -201770.9646 KinEng   =    172253.2613 Temp     =       300.2395 
PotEng   =   -374024.2259 E_bond   =     20538.0425 E_angle  =     87995.0258 
E_dihed  =     42098.6717 E_impro  =      1797.6500 E_vdwl   =    -16635.8450 
E_coul   =   1667480.0076 E_long   =  -2177297.7784 Press    =        34.8809 
Volume   =   2472065.5787 
---------------- Step     3900 ----- CPU =   1026.5716 (sec) ----------------
TotEng   =   -201597.4619 KinEng   =    172050.6476 Temp     =       299.8864 
PotEng   =   -373648.1095 E_bond   =     20561.9387 E_angle  =     88205.1536 
E_dihed  =     42145.7787 E_impro  =      1762.5275 E_vdwl   =    -16450.1674 
E_coul   =   1667396.4369 E_long   =  -2177269.7775 Press    =        25.3330 
Volume   =   2472816.1651 
---------------- Step     3950 ----- CPU =   1039.7466 (sec) ----------------
TotEng   =   -201416.3222 KinEng   =    171838.9837 Temp     =       299.5174 
PotEng   =   -373255.3058 E_bond   =     20741.2967 E_angle  =     88064.1590 
E_dihed  =     42358.4760 E_impro  =      1785.8883 E_vdwl   =    -16380.4995 
E_coul   =   1667408.1609 E_long   =  -2177232.7871 Press    =      -121.1828 
Volume   =   2473385.9183 
---------------- Step     4000 ----- CPU =   1052.9234 (sec) ----------------
TotEng   =   -200951.4886 KinEng   =    172065.1054 Temp     =       299.9116 
PotEng   =   -373016.5940 E_bond   =     20641.8869 E_angle  =     88286.2387 
E_dihed  =     42239.1500 E_impro  =      1745.5897 E_vdwl   =    -16564.7365 
E_coul   =   1667893.3327 E_long   =  -2177258.0554 Press    =       -63.7452 
Volume   =   2473328.2091 
---------------- Step     4050 ----- CPU =   1066.1055 (sec) ----------------
TotEng   =   -200592.5045 KinEng   =    172816.7663 Temp     =       301.2217 
PotEng   =   -373409.2707 E_bond   =     20711.3147 E_angle  =     88198.3487 
E_dihed  =     42158.1622 E_impro  =      1820.1732 E_vdwl   =    -16569.1540 
E_coul   =   1667570.2434 E_long   =  -2177298.3589 Press    =      -160.2501 
Volume   =   2473028.4840 
---------------- Step     4100 ----- CPU =   1079.2966 (sec) ----------------
TotEng   =   -201039.1542 KinEng   =    172419.4060 Temp     =       300.5291 
PotEng   =   -373458.5603 E_bond   =     20688.4508 E_angle  =     88153.4073 
E_dihed  =     42289.8996 E_impro  =      1806.6912 E_vdwl   =    -16798.5885 
E_coul   =   1667681.8319 E_long   =  -2177280.2526 Press    =      -106.4094 
Volume   =   2472203.0716 
---------------- Step     4150 ----- CPU =   1092.4798 (sec) ----------------
TotEng   =   -201790.6887 KinEng   =    172221.8316 Temp     =       300.1847 
PotEng   =   -374012.5203 E_bond   =     20604.7749 E_angle  =     88033.6740 
E_dihed  =     42108.8202 E_impro  =      1787.6007 E_vdwl   =    -17068.4806 
E_coul   =   1667839.4027 E_long   =  -2177318.3123 Press    =       -37.3903 
Volume   =   2471554.6774 
---------------- Step     4200 ----- CPU =   1105.6498 (sec) ----------------
TotEng   =   -202096.6089 KinEng   =    171750.7144 Temp     =       299.3636 
PotEng   =   -373847.3233 E_bond   =     20691.5043 E_angle  =     88131.5944 
E_dihed  =     42196.3325 E_impro  =      1819.5664 E_vdwl   =    -17047.4498 
E_coul   =   1667701.8439 E_long   =  -2177340.7150 Press    =        30.9275 
Volume   =   2470699.3464 
---------------- Step     4250 ----- CPU =   1118.8441 (sec) ----------------
TotEng   =   -201859.5194 KinEng   =    171970.3401 Temp     =       299.7464 
PotEng   =   -373829.8596 E_bond   =     20305.3057 E_angle  =     88363.2654 
E_dihed  =     42186.8184 E_impro  =      1803.0011 E_vdwl   =    -16597.6330 
E_coul   =   1667388.9822 E_long   =  -2177279.5993 Press    =       124.1499 
Volume   =   2469626.2832 
---------------- Step     4300 ----- CPU =   1132.0270 (sec) ----------------
TotEng   =   -201512.8802 KinEng   =    172317.5337 Temp     =       300.3515 
PotEng   =   -373830.4139 E_bond   =     20742.2863 E_angle  =     88696.2530 
E_dihed  =     42040.4556 E_impro  =      1770.1923 E_vdwl   =    -16797.3292 
E_coul   =   1666943.4432 E_long   =  -2177225.7151 Press    =      -128.0362 
Volume   =   2469158.5873 
---------------- Step     4350 ----- CPU =   1145.1961 (sec) ----------------
TotEng   =   -201263.9862 KinEng   =    172074.7419 Temp     =       299.9284 
PotEng   =   -373338.7281 E_bond   =     20723.4882 E_angle  =     88468.6722 
E_dihed  =     42116.1644 E_impro  =      1769.2903 E_vdwl   =    -16410.3555 
E_coul   =   1667241.7081 E_long   =  -2177247.6959 Press    =       140.8994 
Volume   =   2468538.8988 
---------------- Step     4400 ----- CPU =   1158.3735 (sec) ----------------
TotEng   =   -201295.4717 KinEng   =    172131.5008 Temp     =       300.0273 
PotEng   =   -373426.9725 E_bond   =     20745.8640 E_angle  =     88378.7807 
E_dihed  =     42014.9072 E_impro  =      1845.1374 E_vdwl   =    -16695.9045 
E_coul   =   1667548.8568 E_long   =  -2177264.6140 Press    =       -40.5929 
Volume   =   2468163.0454 
---------------- Step     4450 ----- CPU =   1171.5563 (sec) ----------------
TotEng   =   -201506.7231 KinEng   =    172218.4311 Temp     =       300.1788 
PotEng   =   -373725.1543 E_bond   =     20619.5119 E_angle  =     88360.1867 
E_dihed  =     42212.1758 E_impro  =      1789.7353 E_vdwl   =    -17205.5837 
E_coul   =   1667775.5149 E_long   =  -2177276.6952 Press    =       -61.4606 
Volume   =   2468036.3204 
---------------- Step     4500 ----- CPU =   1184.7363 (sec) ----------------
TotEng   =   -201641.3948 KinEng   =    172592.7074 Temp     =       300.8312 
PotEng   =   -374234.1022 E_bond   =     20499.5313 E_angle  =     88250.8733 
E_dihed  =     42017.5585 E_impro  =      1803.5717 E_vdwl   =    -16918.4858 
E_coul   =   1667360.8294 E_long   =  -2177247.9805 Press    =        75.7879 
Volume   =   2468185.5872 
---------------- Step     4550 ----- CPU =   1197.6718 (sec) ----------------
TotEng   =   -201968.9254 KinEng   =    171962.3413 Temp     =       299.7324 
PotEng   =   -373931.2668 E_bond   =     20737.8391 E_angle  =     88332.5415 
E_dihed  =     42131.8741 E_impro  =      1782.6056 E_vdwl   =    -16421.5057 
E_coul   =   1666795.9949 E_long   =  -2177290.6163 Press    =        52.9774 
Volume   =   2468906.3495 
---------------- Step     4600 ----- CPU =   1210.8612 (sec) ----------------
TotEng   =   -202010.3048 KinEng   =    171918.5873 Temp     =       299.6562 
PotEng   =   -373928.8921 E_bond   =     20663.1277 E_angle  =     88502.0240 
E_dihed  =     41977.7946 E_impro  =      1781.1159 E_vdwl   =    -16483.9165 
E_coul   =   1666895.5650 E_long   =  -2177264.6028 Press    =       -18.6778 
Volume   =   2469766.1302 
---------------- Step     4650 ----- CPU =   1224.2808 (sec) ----------------
TotEng   =   -201702.0399 KinEng   =    172213.8919 Temp     =       300.1709 
PotEng   =   -373915.9317 E_bond   =     20655.5856 E_angle  =     88168.6754 
E_dihed  =     41989.0695 E_impro  =      1784.2401 E_vdwl   =    -16581.1524 
E_coul   =   1667357.2030 E_long   =  -2177289.5530 Press    =       -27.7039 
Volume   =   2470140.0574 
---------------- Step     4700 ----- CPU =   1237.4536 (sec) ----------------
TotEng   =   -201394.4949 KinEng   =    172119.9338 Temp     =       300.0071 
PotEng   =   -373514.4287 E_bond   =     20486.0002 E_angle  =     88987.5340 
E_dihed  =     42187.8016 E_impro  =      1769.0372 E_vdwl   =    -16827.5452 
E_coul   =   1667132.6243 E_long   =  -2177249.8808 Press    =       -20.2679 
Volume   =   2470293.8418 
---------------- Step     4750 ----- CPU =   1250.6326 (sec) ----------------
TotEng   =   -201561.8397 KinEng   =    172213.5819 Temp     =       300.1704 
PotEng   =   -373775.4216 E_bond   =     20516.2822 E_angle  =     88706.3134 
E_dihed  =     42288.3008 E_impro  =      1827.8818 E_vdwl   =    -16189.7601 
E_coul   =   1666357.3069 E_long   =  -2177281.7466 Press    =        23.1965 
Volume   =   2470639.9387 
---------------- Step     4800 ----- CPU =   1263.7994 (sec) ----------------
TotEng   =   -201989.4319 KinEng   =    172046.2449 Temp     =       299.8787 
PotEng   =   -374035.6768 E_bond   =     20847.2677 E_angle  =     88380.2575 
E_dihed  =     42141.8496 E_impro  =      1779.5879 E_vdwl   =    -16613.9090 
E_coul   =   1666722.8040 E_long   =  -2177293.5346 Press    =      -115.0057 
Volume   =   2471040.4802 
---------------- Step     4850 ----- CPU =   1276.9763 (sec) ----------------
TotEng   =   -202300.6743 KinEng   =    171797.8513 Temp     =       299.4457 
PotEng   =   -374098.5256 E_bond   =     20734.5557 E_angle  =     88327.7849 
E_dihed  =     42140.9906 E_impro  =      1775.6498 E_vdwl   =    -16480.3252 
E_coul   =   1666687.5544 E_long   =  -2177284.7357 Press    =      -107.1886 
Volume   =   2471526.1962 
---------------- Step     4900 ----- CPU =   1290.1473 (sec) ----------------
TotEng   =   -202269.7231 KinEng   =    172364.9194 Temp     =       300.4341 
PotEng   =   -374634.6425 E_bond   =     20458.5291 E_angle  =     88134.7021 
E_dihed  =     42050.9027 E_impro  =      1820.5402 E_vdwl   =    -16069.9580 
E_coul   =   1666271.3914 E_long   =  -2177300.7501 Press    =         0.4479 
Volume   =   2471667.1034 
---------------- Step     4950 ----- CPU =   1303.3189 (sec) ----------------
TotEng   =   -201994.7788 KinEng   =    172127.1266 Temp     =       300.0197 
PotEng   =   -374121.9054 E_bond   =     20547.3063 E_angle  =     88540.2524 
E_dihed  =     42221.6628 E_impro  =      1795.4449 E_vdwl   =    -16531.8106 
E_coul   =   1666611.5377 E_long   =  -2177306.2989 Press    =      -129.3882 
Volume   =   2471719.2252 
---------------- Step     5000 ----- CPU =   1316.4870 (sec) ----------------
TotEng   =   -201645.6005 KinEng   =    172443.4423 Temp     =       300.5710 
PotEng   =   -374089.0428 E_bond   =     20616.1268 E_angle  =     88840.4099 
E_dihed  =     41883.4389 E_impro  =      1783.9385 E_vdwl   =    -16624.4395 
E_coul   =   1666705.5015 E_long   =  -2177294.0189 Press    =       -44.1839 
Volume   =   2471427.4895 
---------------- Step     5050 ----- CPU =   1329.6535 (sec) ----------------
TotEng   =   -201333.3613 KinEng   =    172158.1141 Temp     =       300.0737 
PotEng   =   -373491.4754 E_bond   =     20657.4334 E_angle  =     88822.1922 
E_dihed  =     42065.8877 E_impro  =      1825.2236 E_vdwl   =    -16513.1372 
E_coul   =   1666930.2484 E_long   =  -2177279.3234 Press    =        54.4423 
Volume   =   2471255.9879 
---------------- Step     5100 ----- CPU =   1342.8294 (sec) ----------------
TotEng   =   -201465.4723 KinEng   =    172212.0277 Temp     =       300.1676 
PotEng   =   -373677.5000 E_bond   =     20710.8999 E_angle  =     88645.8312 
E_dihed  =     42121.9356 E_impro  =      1780.2981 E_vdwl   =    -16096.2184 
E_coul   =   1666439.2165 E_long   =  -2177279.4629 Press    =       -34.0604 
Volume   =   2471330.3495 
---------------- Step     5150 ----- CPU =   1356.0071 (sec) ----------------
TotEng   =   -201905.3958 KinEng   =    172043.0136 Temp     =       299.8730 
PotEng   =   -373948.4094 E_bond   =     20693.8636 E_angle  =     88457.7970 
E_dihed  =     42107.4425 E_impro  =      1817.6458 E_vdwl   =    -16435.3711 
E_coul   =   1666661.0888 E_long   =  -2177250.8761 Press    =       -84.4642 
Volume   =   2471025.1755 
---------------- Step     5200 ----- CPU =   1369.1832 (sec) ----------------
TotEng   =   -202354.4324 KinEng   =    171985.2235 Temp     =       299.7723 
PotEng   =   -374339.6560 E_bond   =     20580.4175 E_angle  =     88330.7811 
E_dihed  =     42098.6485 E_impro  =      1782.0266 E_vdwl   =    -16659.3631 
E_coul   =   1666834.8212 E_long   =  -2177306.9879 Press    =       -34.1967 
Volume   =   2470603.1814 
---------------- Step     5250 ----- CPU =   1382.3521 (sec) ----------------
TotEng   =   -202372.6991 KinEng   =    172020.0852 Temp     =       299.8331 
PotEng   =   -374392.7843 E_bond   =     20691.7871 E_angle  =     88422.6631 
E_dihed  =     42005.1019 E_impro  =      1803.7347 E_vdwl   =    -16961.0108 
E_coul   =   1666923.4860 E_long   =  -2177278.5463 Press    =      -184.5546 
Volume   =   2469856.6161 
---------------- Step     5300 ----- CPU =   1395.8031 (sec) ----------------
TotEng   =   -201957.1128 KinEng   =    172391.5923 Temp     =       300.4806 
PotEng   =   -374348.7051 E_bond   =     20646.4035 E_angle  =     88484.3512 
E_dihed  =     42100.1838 E_impro  =      1785.4441 E_vdwl   =    -16429.0878 
E_coul   =   1666371.4784 E_long   =  -2177307.4783 Press    =       -15.1723 
Volume   =   2468379.8525 
---------------- Step     5350 ----- CPU =   1408.7431 (sec) ----------------
TotEng   =   -201733.3737 KinEng   =    172144.1944 Temp     =       300.0494 
PotEng   =   -373877.5681 E_bond   =     20630.7175 E_angle  =     88948.8484 
E_dihed  =     41967.6064 E_impro  =      1783.5898 E_vdwl   =    -15969.1034 
E_coul   =   1666047.9999 E_long   =  -2177287.2267 Press    =        76.6586 
Volume   =   2467428.4685 
---------------- Step     5400 ----- CPU =   1422.1807 (sec) ----------------
TotEng   =   -201945.1853 KinEng   =    171643.2199 Temp     =       299.1762 
PotEng   =   -373588.4052 E_bond   =     20479.2129 E_angle  =     89055.4690 
E_dihed  =     42246.8119 E_impro  =      1821.5243 E_vdwl   =    -16104.9058 
E_coul   =   1666207.7415 E_long   =  -2177294.2591 Press    =       126.9981 
Volume   =   2466945.8116 
---------------- Step     5450 ----- CPU =   1435.3678 (sec) ----------------
TotEng   =   -202171.6152 KinEng   =    172574.4646 Temp     =       300.7994 
PotEng   =   -374746.0798 E_bond   =     20751.6858 E_angle  =     88437.0200 
E_dihed  =     42133.9381 E_impro  =      1784.6354 E_vdwl   =    -16474.0415 
E_coul   =   1665917.7257 E_long   =  -2177297.0433 Press    =       -37.4849 
Volume   =   2467152.2653 
---------------- Step     5500 ----- CPU =   1448.5527 (sec) ----------------
TotEng   =   -202441.2054 KinEng   =    172253.3481 Temp     =       300.2397 
PotEng   =   -374694.5535 E_bond   =     20630.0069 E_angle  =     88402.6744 
E_dihed  =     42192.9536 E_impro  =      1851.6747 E_vdwl   =    -16826.6852 
E_coul   =   1666365.8914 E_long   =  -2177311.0694 Press    =       129.4551 
Volume   =   2467692.4415 
---------------- Step     5550 ----- CPU =   1461.7265 (sec) ----------------
TotEng   =   -202547.2113 KinEng   =    172015.6364 Temp     =       299.8253 
PotEng   =   -374562.8477 E_bond   =     20800.8780 E_angle  =     88283.1320 
E_dihed  =     42094.6832 E_impro  =      1758.6719 E_vdwl   =    -16407.3803 
E_coul   =   1666174.6781 E_long   =  -2177267.5105 Press    =       -39.9969 
Volume   =   2468505.5843 
---------------- Step     5600 ----- CPU =   1474.9019 (sec) ----------------
TotEng   =   -202040.9991 KinEng   =    172106.0522 Temp     =       299.9829 
PotEng   =   -374147.0512 E_bond   =     20765.0309 E_angle  =     88563.6258 
E_dihed  =     42037.7957 E_impro  =      1809.3397 E_vdwl   =    -16169.6773 
E_coul   =   1666131.3930 E_long   =  -2177284.5590 Press    =      -117.8533 
Volume   =   2469358.2116 
---------------- Step     5650 ----- CPU =   1488.3404 (sec) ----------------
TotEng   =   -201844.7049 KinEng   =    172219.2208 Temp     =       300.1802 
PotEng   =   -374063.9257 E_bond   =     20722.6373 E_angle  =     88363.4699 
E_dihed  =     42104.5468 E_impro  =      1819.5683 E_vdwl   =    -16106.6388 
E_coul   =   1666329.8799 E_long   =  -2177297.3890 Press    =       -82.1936 
Volume   =   2470227.9340 
---------------- Step     5700 ----- CPU =   1501.2631 (sec) ----------------
TotEng   =   -202023.5259 KinEng   =    172131.3657 Temp     =       300.0270 
PotEng   =   -374154.8916 E_bond   =     20625.8779 E_angle  =     88817.0343 
E_dihed  =     42034.9287 E_impro  =      1832.8949 E_vdwl   =    -16137.8890 
E_coul   =   1665955.3983 E_long   =  -2177283.1367 Press    =       -59.5256 
Volume   =   2470764.3113 
---------------- Step     5750 ----- CPU =   1514.4388 (sec) ----------------
TotEng   =   -202589.5438 KinEng   =    171901.7109 Temp     =       299.6268 
PotEng   =   -374491.2547 E_bond   =     20664.4216 E_angle  =     88713.5832 
E_dihed  =     41970.8439 E_impro  =      1768.9278 E_vdwl   =    -16037.4752 
E_coul   =   1665725.7238 E_long   =  -2177297.2798 Press    =      -120.5872 
Volume   =   2471088.7585 
---------------- Step     5800 ----- CPU =   1527.6236 (sec) ----------------
TotEng   =   -202794.4217 KinEng   =    171908.6429 Temp     =       299.6388 
PotEng   =   -374703.0646 E_bond   =     20686.6825 E_angle  =     88299.2476 
E_dihed  =     42099.6031 E_impro  =      1796.5781 E_vdwl   =    -15913.3102 
E_coul   =   1665651.5678 E_long   =  -2177323.4335 Press    =      -138.5429 
Volume   =   2471383.9543 
---------------- Step     5850 ----- CPU =   1540.8109 (sec) ----------------
TotEng   =   -202365.9871 KinEng   =    172461.9688 Temp     =       300.6033 
PotEng   =   -374827.9560 E_bond   =     20568.4493 E_angle  =     88193.9829 
E_dihed  =     42038.1301 E_impro  =      1801.0329 E_vdwl   =    -15942.1263 
E_coul   =   1665817.4974 E_long   =  -2177304.9222 Press    =       120.0610 
Volume   =   2471754.7708 
---------------- Step     5900 ----- CPU =   1553.9875 (sec) ----------------
TotEng   =   -201822.4362 KinEng   =    171750.3565 Temp     =       299.3629 
PotEng   =   -373572.7926 E_bond   =     20789.0629 E_angle  =     88860.9760 
E_dihed  =     42189.0039 E_impro  =      1811.6077 E_vdwl   =    -15870.4603 
E_coul   =   1665923.9379 E_long   =  -2177276.9208 Press    =       -63.2165 
Volume   =   2472179.8007 
---------------- Step     5950 ----- CPU =   1567.4199 (sec) ----------------
TotEng   =   -201740.2883 KinEng   =    172374.3223 Temp     =       300.4505 
PotEng   =   -374114.6106 E_bond   =     20819.7156 E_angle  =     88641.5066 
E_dihed  =     42183.5058 E_impro  =      1767.6139 E_vdwl   =    -15780.7867 
E_coul   =   1665554.5616 E_long   =  -2177300.7273 Press    =       -58.0230 
Volume   =   2472281.4340 
---------------- Step     6000 ----- CPU =   1580.5853 (sec) ----------------
TotEng   =   -202026.6585 KinEng   =    172079.4336 Temp     =       299.9365 
PotEng   =   -374106.0921 E_bond   =     20643.4634 E_angle  =     88329.4906 
E_dihed  =     42083.5516 E_impro  =      1813.2432 E_vdwl   =    -16339.4820 
E_coul   =   1666654.7041 E_long   =  -2177291.0630 Press    =       -89.7392 
Volume   =   2472463.5734 
---------------- Step     6050 ----- CPU =   1593.7655 (sec) ----------------
TotEng   =   -202164.3404 KinEng   =    171821.8986 Temp     =       299.4876 
PotEng   =   -373986.2390 E_bond   =     20587.5970 E_angle  =     88557.4490 
E_dihed  =     42215.8464 E_impro  =      1840.5804 E_vdwl   =    -16647.9960 
E_coul   =   1666720.4521 E_long   =  -2177260.1679 Press    =      -143.8345 
Volume   =   2472151.4813 
---------------- Step     6100 ----- CPU =   1606.9387 (sec) ----------------
TotEng   =   -202019.2593 KinEng   =    171782.6310 Temp     =       299.4192 
PotEng   =   -373801.8903 E_bond   =     20804.7442 E_angle  =     88956.2676 
E_dihed  =     42235.4176 E_impro  =      1767.0056 E_vdwl   =    -16601.0087 
E_coul   =   1666319.6411 E_long   =  -2177283.9576 Press    =      -237.5911 
Volume   =   2471663.6220 
---------------- Step     6150 ----- CPU =   1620.1159 (sec) ----------------
TotEng   =   -201636.0121 KinEng   =    172120.4962 Temp     =       300.0081 
PotEng   =   -373756.5083 E_bond   =     20780.9603 E_angle  =     88684.1420 
E_dihed  =     42265.7342 E_impro  =      1794.3993 E_vdwl   =    -16163.6605 
E_coul   =   1666145.2766 E_long   =  -2177263.3602 Press    =        47.1625 
Volume   =   2470809.1840 
---------------- Step     6200 ----- CPU =   1633.3000 (sec) ----------------
TotEng   =   -201432.2053 KinEng   =    172510.5493 Temp     =       300.6880 
PotEng   =   -373942.7546 E_bond   =     20550.3187 E_angle  =     88486.0362 
E_dihed  =     42192.5837 E_impro  =      1752.0518 E_vdwl   =    -16049.4607 
E_coul   =   1666374.3878 E_long   =  -2177248.6721 Press    =        17.5887 
Volume   =   2470106.5425 
---------------- Step     6250 ----- CPU =   1646.4852 (sec) ----------------
TotEng   =   -201389.5777 KinEng   =    172224.1876 Temp     =       300.1888 
PotEng   =   -373613.7652 E_bond   =     20755.6092 E_angle  =     88983.8496 
E_dihed  =     42084.4398 E_impro  =      1798.6016 E_vdwl   =    -15954.8148 
E_coul   =   1665979.1972 E_long   =  -2177260.6478 Press    =        24.4685 
Volume   =   2469732.9090 
---------------- Step     6300 ----- CPU =   1659.6827 (sec) ----------------
TotEng   =   -201946.7119 KinEng   =    171875.7901 Temp     =       299.5816 
PotEng   =   -373822.5020 E_bond   =     20821.4488 E_angle  =     88555.4297 
E_dihed  =     42205.9637 E_impro  =      1787.9030 E_vdwl   =    -16179.0077 
E_coul   =   1666276.1408 E_long   =  -2177290.3802 Press    =        35.2601 
Volume   =   2469464.8492 
---------------- Step     6350 ----- CPU =   1672.8760 (sec) ----------------
TotEng   =   -202590.5578 KinEng   =    172134.0436 Temp     =       300.0317 
PotEng   =   -374724.6014 E_bond   =     20359.9733 E_angle  =     88469.8212 
E_dihed  =     42261.3602 E_impro  =      1796.0834 E_vdwl   =    -16415.2593 
E_coul   =   1666100.8825 E_long   =  -2177297.4627 Press    =       145.2033 
Volume   =   2469366.2847 
---------------- Step     6400 ----- CPU =   1686.0751 (sec) ----------------
TotEng   =   -202627.2855 KinEng   =    171765.3085 Temp     =       299.3890 
PotEng   =   -374392.5940 E_bond   =     20765.3840 E_angle  =     88295.2607 
E_dihed  =     42155.1026 E_impro  =      1769.3137 E_vdwl   =    -15732.6737 
E_coul   =   1665633.6005 E_long   =  -2177278.5817 Press    =       106.5576 
Volume   =   2469306.1464 
---------------- Step     6450 ----- CPU =   1699.5083 (sec) ----------------
TotEng   =   -202185.7374 KinEng   =    172193.3004 Temp     =       300.1350 
PotEng   =   -374379.0378 E_bond   =     20531.0989 E_angle  =     88460.9640 
E_dihed  =     42195.5233 E_impro  =      1772.1173 E_vdwl   =    -16347.0841 
E_coul   =   1666291.8762 E_long   =  -2177283.5334 Press    =       111.4122 
Volume   =   2469851.9395 
---------------- Step     6500 ----- CPU =   1712.6964 (sec) ----------------
TotEng   =   -201513.8542 KinEng   =    171891.0767 Temp     =       299.6082 
PotEng   =   -373404.9309 E_bond   =     20442.2074 E_angle  =     89050.7707 
E_dihed  =     42114.2725 E_impro  =      1811.0064 E_vdwl   =    -16463.2590 
E_coul   =   1666935.8292 E_long   =  -2177295.7582 Press    =         0.5887 
Volume   =   2470514.0599 
---------------- Step     6550 ----- CPU =   1725.8745 (sec) ----------------
TotEng   =   -201015.2627 KinEng   =    172267.5975 Temp     =       300.2645 
PotEng   =   -373282.8602 E_bond   =     20627.2544 E_angle  =     89100.8386 
E_dihed  =     42142.1638 E_impro  =      1840.5462 E_vdwl   =    -16602.2419 
E_coul   =   1666866.8513 E_long   =  -2177258.2727 Press    =       -80.4125 
Volume   =   2470975.7917 
---------------- Step     6600 ----- CPU =   1739.0591 (sec) ----------------
TotEng   =   -201195.7612 KinEng   =    172371.9116 Temp     =       300.4463 
PotEng   =   -373567.6728 E_bond   =     20608.2853 E_angle  =     88484.1014 
E_dihed  =     42162.6034 E_impro  =      1822.8695 E_vdwl   =    -16459.6315 
E_coul   =   1667108.7665 E_long   =  -2177294.6676 Press    =        37.9688 
Volume   =   2470994.6127 
---------------- Step     6650 ----- CPU =   1752.2369 (sec) ----------------
TotEng   =   -201919.6656 KinEng   =    171685.7634 Temp     =       299.2504 
PotEng   =   -373605.4290 E_bond   =     20789.8818 E_angle  =     88836.7814 
E_dihed  =     42174.1124 E_impro  =      1827.8618 E_vdwl   =    -16733.1917 
E_coul   =   1666763.9945 E_long   =  -2177264.8693 Press    =       -16.1295 
Volume   =   2471148.8388 
---------------- Step     6700 ----- CPU =   1765.4136 (sec) ----------------
TotEng   =   -202531.8963 KinEng   =    171545.9395 Temp     =       299.0066 
PotEng   =   -374077.8357 E_bond   =     20540.5882 E_angle  =     88497.4066 
E_dihed  =     42190.9733 E_impro  =      1849.0624 E_vdwl   =    -16523.7054 
E_coul   =   1666659.6080 E_long   =  -2177291.7686 Press    =       -93.1772 
Volume   =   2471090.0253 
---------------- Step     6750 ----- CPU =   1778.8627 (sec) ----------------
TotEng   =   -202229.8227 KinEng   =    171682.1313 Temp     =       299.2440 
PotEng   =   -373911.9540 E_bond   =     20696.3447 E_angle  =     88737.4863 
E_dihed  =     42268.3676 E_impro  =      1809.2755 E_vdwl   =    -16083.5566 
E_coul   =   1665932.7473 E_long   =  -2177272.6188 Press    =        10.3664 
Volume   =   2471077.0232 
---------------- Step     6800 ----- CPU =   1792.0385 (sec) ----------------
TotEng   =   -201745.8794 KinEng   =    172347.5028 Temp     =       300.4038 
PotEng   =   -374093.3823 E_bond   =     20832.1789 E_angle  =     88501.7486 
E_dihed  =     42088.9942 E_impro  =      1788.1240 E_vdwl   =    -16427.8210 
E_coul   =   1666386.3527 E_long   =  -2177262.9596 Press    =       -89.5562 
Volume   =   2470683.6921 
---------------- Step     6850 ----- CPU =   1805.2213 (sec) ----------------
TotEng   =   -201447.5520 KinEng   =    172090.1548 Temp     =       299.9552 
PotEng   =   -373537.7068 E_bond   =     20718.7147 E_angle  =     88828.3775 
E_dihed  =     42071.3696 E_impro  =      1830.8110 E_vdwl   =    -16010.5928 
E_coul   =   1666292.9731 E_long   =  -2177269.3599 Press    =        -3.8492 
Volume   =   2470354.8140 
---------------- Step     6900 ----- CPU =   1818.4093 (sec) ----------------
TotEng   =   -201425.5108 KinEng   =    172344.0962 Temp     =       300.3978 
PotEng   =   -373769.6070 E_bond   =     20720.1100 E_angle  =     88767.4348 
E_dihed  =     42117.1105 E_impro  =      1795.5078 E_vdwl   =    -16477.6272 
E_coul   =   1666573.5030 E_long   =  -2177265.6459 Press    =       -34.1780 
Volume   =   2470436.3565 
---------------- Step     6950 ----- CPU =   1831.5812 (sec) ----------------
TotEng   =   -201644.6457 KinEng   =    172337.4540 Temp     =       300.3863 
PotEng   =   -373982.0997 E_bond   =     20641.1168 E_angle  =     88665.4105 
E_dihed  =     42040.7210 E_impro  =      1811.0591 E_vdwl   =    -16778.5012 
E_coul   =   1666928.3522 E_long   =  -2177290.2583 Press    =       -87.0553 
Volume   =   2470609.8148 
---------------- Step     7000 ----- CPU =   1844.7598 (sec) ----------------
TotEng   =   -201793.1054 KinEng   =    172316.3390 Temp     =       300.3495 
PotEng   =   -374109.4445 E_bond   =     20516.0417 E_angle  =     88532.1125 
E_dihed  =     42121.7430 E_impro  =      1818.2744 E_vdwl   =    -16625.9340 
E_coul   =   1666793.8193 E_long   =  -2177265.5013 Press    =       -44.8668 
Volume   =   2470617.3237 
---------------- Step     7050 ----- CPU =   1857.9374 (sec) ----------------
TotEng   =   -201848.0027 KinEng   =    171655.3182 Temp     =       299.1973 
PotEng   =   -373503.3209 E_bond   =     20756.7939 E_angle  =     88912.8844 
E_dihed  =     42174.4859 E_impro  =      1803.4297 E_vdwl   =    -16338.2061 
E_coul   =   1666492.0964 E_long   =  -2177304.8051 Press    =        32.4572 
Volume   =   2470651.9914 
---------------- Step     7100 ----- CPU =   1871.1160 (sec) ----------------
TotEng   =   -201756.5268 KinEng   =    171989.8401 Temp     =       299.7804 
PotEng   =   -373746.3669 E_bond   =     20688.1656 E_angle  =     88913.0322 
E_dihed  =     42062.9971 E_impro  =      1795.9831 E_vdwl   =    -16810.5869 
E_coul   =   1666913.1687 E_long   =  -2177309.1267 Press    =       -95.1782 
Volume   =   2470665.7253 
---------------- Step     7150 ----- CPU =   1884.5467 (sec) ----------------
TotEng   =   -201616.7881 KinEng   =    172165.8099 Temp     =       300.0871 
PotEng   =   -373782.5979 E_bond   =     20737.2799 E_angle  =     88646.8553 
E_dihed  =     42139.1545 E_impro  =      1816.0347 E_vdwl   =    -16987.9905 
E_coul   =   1667137.9051 E_long   =  -2177271.8369 Press    =      -193.7943 
Volume   =   2470356.4813 
---------------- Step     7200 ----- CPU =   1897.4647 (sec) ----------------
TotEng   =   -201708.2404 KinEng   =    172322.0625 Temp     =       300.3594 
PotEng   =   -374030.3029 E_bond   =     20804.1080 E_angle  =     88465.6887 
E_dihed  =     42070.2806 E_impro  =      1792.8888 E_vdwl   =    -15892.0594 
E_coul   =   1666032.6112 E_long   =  -2177303.8209 Press    =        14.8875 
Volume   =   2469906.3778 
---------------- Step     7250 ----- CPU =   1910.8977 (sec) ----------------
TotEng   =   -202031.6041 KinEng   =    172352.3920 Temp     =       300.4123 
PotEng   =   -374383.9960 E_bond   =     20547.9149 E_angle  =     88470.3837 
E_dihed  =     42151.8003 E_impro  =      1790.2908 E_vdwl   =    -16048.6692 
E_coul   =   1666015.3974 E_long   =  -2177311.1138 Press    =        90.4887 
Volume   =   2470007.0102 
---------------- Step     7300 ----- CPU =   1923.8271 (sec) ----------------
TotEng   =   -202451.0687 KinEng   =    172144.2844 Temp     =       300.0496 
PotEng   =   -374595.3531 E_bond   =     20760.0365 E_angle  =     88335.1579 
E_dihed  =     41996.3717 E_impro  =      1809.6005 E_vdwl   =    -16265.6484 
E_coul   =   1666059.9276 E_long   =  -2177290.7990 Press    =       -87.1823 
Volume   =   2470365.8055 
---------------- Step     7350 ----- CPU =   1937.2554 (sec) ----------------
TotEng   =   -202792.1956 KinEng   =    172059.9058 Temp     =       299.9025 
PotEng   =   -374852.1015 E_bond   =     20518.1630 E_angle  =     88724.1731 
E_dihed  =     42104.6761 E_impro  =      1807.4944 E_vdwl   =    -16203.6206 
E_coul   =   1665471.8285 E_long   =  -2177274.8159 Press    =        -0.8540 
Volume   =   2470353.5289 
---------------- Step     7400 ----- CPU =   1950.1926 (sec) ----------------
TotEng   =   -202823.0828 KinEng   =    171662.2338 Temp     =       299.2093 
PotEng   =   -374485.3166 E_bond   =     20514.4855 E_angle  =     88900.9687 
E_dihed  =     42101.5071 E_impro  =      1777.3815 E_vdwl   =    -15940.4701 
E_coul   =   1665435.8740 E_long   =  -2177275.0633 Press    =       128.5110 
Volume   =   2470109.3661 
---------------- Step     7450 ----- CPU =   1963.3786 (sec) ----------------
TotEng   =   -202606.4401 KinEng   =    171816.9479 Temp     =       299.4790 
PotEng   =   -374423.3879 E_bond   =     20748.2421 E_angle  =     88684.1094 
E_dihed  =     42244.7954 E_impro  =      1846.8537 E_vdwl   =    -16235.7703 
E_coul   =   1665595.7038 E_long   =  -2177307.3219 Press    =      -204.2926 
Volume   =   2469786.9781 
---------------- Step     7500 ----- CPU =   1976.5585 (sec) ----------------
TotEng   =   -202125.4704 KinEng   =    172288.2745 Temp     =       300.3005 
PotEng   =   -374413.7449 E_bond   =     20651.7935 E_angle  =     88638.9505 
E_dihed  =     42179.5854 E_impro  =      1825.8505 E_vdwl   =    -16266.6204 
E_coul   =   1665860.0911 E_long   =  -2177303.3956 Press    =        10.6982 
Volume   =   2469196.9385 
---------------- Step     7550 ----- CPU =   1989.9943 (sec) ----------------
TotEng   =   -201968.1684 KinEng   =    172414.5535 Temp     =       300.5206 
PotEng   =   -374382.7218 E_bond   =     20883.3630 E_angle  =     88551.0677 
E_dihed  =     42385.8992 E_impro  =      1797.0845 E_vdwl   =    -16331.9561 
E_coul   =   1665624.4590 E_long   =  -2177292.6391 Press    =      -152.7656 
Volume   =   2468611.4767 
---------------- Step     7600 ----- CPU =   2003.1765 (sec) ----------------
TotEng   =   -202197.4218 KinEng   =    172071.4851 Temp     =       299.9227 
PotEng   =   -374268.9069 E_bond   =     20783.9842 E_angle  =     88835.7901 
E_dihed  =     42208.0864 E_impro  =      1802.6199 E_vdwl   =    -16320.5488 
E_coul   =   1665701.6656 E_long   =  -2177280.5042 Press    =       -15.7153 
Volume   =   2468361.5086 
---------------- Step     7650 ----- CPU =   2016.3572 (sec) ----------------
TotEng   =   -202601.6382 KinEng   =    172054.9066 Temp     =       299.8938 
PotEng   =   -374656.5448 E_bond   =     21017.8479 E_angle  =     88673.3429 
E_dihed  =     42072.0059 E_impro  =      1778.8357 E_vdwl   =    -16316.3974 
E_coul   =   1665408.1980 E_long   =  -2177290.3778 Press    =      -124.7229 
Volume   =   2468464.5850 
---------------- Step     7700 ----- CPU =   2029.2897 (sec) ----------------
TotEng   =   -202868.2348 KinEng   =    171890.0549 Temp     =       299.6064 
PotEng   =   -374758.2897 E_bond   =     20622.8254 E_angle  =     88681.2615 
E_dihed  =     42197.4268 E_impro  =      1866.0748 E_vdwl   =    -16672.4846 
E_coul   =   1665865.1876 E_long   =  -2177318.5812 Press    =        41.6053 
Volume   =   2468598.2402 
---------------- Step     7750 ----- CPU =   2042.4661 (sec) ----------------
TotEng   =   -202693.7958 KinEng   =    172004.3482 Temp     =       299.8057 
PotEng   =   -374698.1440 E_bond   =     20935.0914 E_angle  =     88509.4597 
E_dihed  =     42133.3424 E_impro  =      1813.2186 E_vdwl   =    -16486.7887 
E_coul   =   1665695.8215 E_long   =  -2177298.2889 Press    =      -187.8677 
Volume   =   2468646.7563 
---------------- Step     7800 ----- CPU =   2055.6586 (sec) ----------------
TotEng   =   -202116.7826 KinEng   =    172341.1157 Temp     =       300.3926 
PotEng   =   -374457.8983 E_bond   =     20594.4366 E_angle  =     88656.7677 
E_dihed  =     42153.6949 E_impro  =      1800.7315 E_vdwl   =    -16458.7144 
E_coul   =   1666117.4417 E_long   =  -2177322.2563 Press    =       -41.2809 
Volume   =   2468554.7520 
---------------- Step     7850 ----- CPU =   2068.8396 (sec) ----------------
TotEng   =   -201644.4837 KinEng   =    172457.5148 Temp     =       300.5955 
PotEng   =   -374101.9986 E_bond   =     20871.6501 E_angle  =     88679.8408 
E_dihed  =     42118.5902 E_impro  =      1841.0851 E_vdwl   =    -16677.6096 
E_coul   =   1666387.1226 E_long   =  -2177322.6778 Press    =      -193.1004 
Volume   =   2468718.9245 
---------------- Step     7900 ----- CPU =   2082.0219 (sec) ----------------
TotEng   =   -201555.5903 KinEng   =    172138.0424 Temp     =       300.0387 
PotEng   =   -373693.6328 E_bond   =     20818.2323 E_angle  =     88864.6717 
E_dihed  =     42396.5312 E_impro  =      1873.1197 E_vdwl   =    -16215.5530 
E_coul   =   1665893.3704 E_long   =  -2177324.0052 Press    =       -35.1429 
Volume   =   2468662.4574 
---------------- Step     7950 ----- CPU =   2095.2020 (sec) ----------------
TotEng   =   -201830.7150 KinEng   =    172337.0450 Temp     =       300.3856 
PotEng   =   -374167.7600 E_bond   =     20741.3361 E_angle  =     88680.6500 
E_dihed  =     42262.1473 E_impro  =      1804.6650 E_vdwl   =    -16482.2386 
E_coul   =   1666112.2095 E_long   =  -2177286.5293 Press    =       -75.7693 
Volume   =   2468752.3938 
---------------- Step     8000 ----- CPU =   2108.4010 (sec) ----------------
TotEng   =   -202272.6095 KinEng   =    171761.7533 Temp     =       299.3828 
PotEng   =   -374034.3627 E_bond   =     20797.2345 E_angle  =     88840.1922 
E_dihed  =     42091.7716 E_impro  =      1828.6846 E_vdwl   =    -16876.9161 
E_coul   =   1666619.8498 E_long   =  -2177335.1794 Press    =       -33.8220 
Volume   =   2468745.4607 
---------------- Step     8050 ----- CPU =   2121.5808 (sec) ----------------
TotEng   =   -202478.5430 KinEng   =    172212.2381 Temp     =       300.1680 
PotEng   =   -374690.7811 E_bond   =     20596.7888 E_angle  =     88504.4123 
E_dihed  =     42017.0478 E_impro  =      1849.4073 E_vdwl   =    -16797.6766 
E_coul   =   1666482.6697 E_long   =  -2177343.4305 Press    =         7.3459 
Volume   =   2468892.1011 
---------------- Step     8100 ----- CPU =   2134.7780 (sec) ----------------
TotEng   =   -202374.8532 KinEng   =    171944.4430 Temp     =       299.7012 
PotEng   =   -374319.2962 E_bond   =     20540.4278 E_angle  =     88773.4290 
E_dihed  =     42209.8833 E_impro  =      1833.6517 E_vdwl   =    -17027.5165 
E_coul   =   1666666.9379 E_long   =  -2177316.1095 Press    =       113.7781 
Volume   =   2468877.8523 
---------------- Step     8150 ----- CPU =   2147.9622 (sec) ----------------
TotEng   =   -202041.2136 KinEng   =    172196.0734 Temp     =       300.1398 
PotEng   =   -374237.2871 E_bond   =     20616.6259 E_angle  =     89024.0297 
E_dihed  =     42069.5109 E_impro  =      1817.0284 E_vdwl   =    -17072.1988 
E_coul   =   1666610.1418 E_long   =  -2177302.4251 Press    =      -205.2214 
Volume   =   2469143.0595 
---------------- Step     8200 ----- CPU =   2161.1466 (sec) ----------------
TotEng   =   -201782.5741 KinEng   =    172939.9434 Temp     =       301.4364 
PotEng   =   -374722.5175 E_bond   =     20584.9476 E_angle  =     88673.3300 
E_dihed  =     42145.3078 E_impro  =      1845.1725 E_vdwl   =    -17020.0549 
E_coul   =   1666356.9565 E_long   =  -2177308.1770 Press    =       -86.2620 
Volume   =   2468571.9923 
---------------- Step     8250 ----- CPU =   2174.3386 (sec) ----------------
TotEng   =   -202056.1346 KinEng   =    172493.8846 Temp     =       300.6589 
PotEng   =   -374550.0192 E_bond   =     20722.8154 E_angle  =     88758.2619 
E_dihed  =     42108.6386 E_impro  =      1823.9874 E_vdwl   =    -16279.9657 
E_coul   =   1665621.8008 E_long   =  -2177305.5576 Press    =       -79.7510 
Volume   =   2468068.7746 
---------------- Step     8300 ----- CPU =   2187.2717 (sec) ----------------
TotEng   =   -202682.2836 KinEng   =    171931.7800 Temp     =       299.6792 
PotEng   =   -374614.0635 E_bond   =     20892.7259 E_angle  =     88407.9696 
E_dihed  =     42066.6585 E_impro  =      1833.3588 E_vdwl   =    -16727.2424 
E_coul   =   1666223.3257 E_long   =  -2177310.8597 Press    =      -122.9089 
Volume   =   2468108.9461 
---------------- Step     8350 ----- CPU =   2200.4531 (sec) ----------------
TotEng   =   -202592.5488 KinEng   =    171874.9009 Temp     =       299.5800 
PotEng   =   -374467.4497 E_bond   =     20735.4033 E_angle  =     88591.6378 
E_dihed  =     42084.1187 E_impro  =      1745.4264 E_vdwl   =    -16395.2602 
E_coul   =   1666091.1178 E_long   =  -2177319.8934 Press    =       -13.8967 
Volume   =   2468005.6956 
---------------- Step     8400 ----- CPU =   2213.6418 (sec) ----------------
TotEng   =   -202040.4125 KinEng   =    172864.8498 Temp     =       301.3055 
PotEng   =   -374905.2622 E_bond   =     20818.3116 E_angle  =     88838.4584 
E_dihed  =     42013.9066 E_impro  =      1802.4238 E_vdwl   =    -16117.8813 
E_coul   =   1665059.9446 E_long   =  -2177320.4261 Press    =      -138.6045 
Volume   =   2468017.8179 
---------------- Step     8450 ----- CPU =   2226.8275 (sec) ----------------
TotEng   =   -202129.1301 KinEng   =    172286.8981 Temp     =       300.2981 
PotEng   =   -374416.0281 E_bond   =     20771.5778 E_angle  =     88871.7026 
E_dihed  =     42149.1976 E_impro  =      1844.9445 E_vdwl   =    -16205.2833 
E_coul   =   1665491.1865 E_long   =  -2177339.3539 Press    =       -23.8027 
Volume   =   2467855.9688 
---------------- Step     8500 ----- CPU =   2240.0082 (sec) ----------------
TotEng   =   -202570.8717 KinEng   =    171783.5070 Temp     =       299.4207 
PotEng   =   -374354.3787 E_bond   =     20583.3908 E_angle  =     89016.0520 
E_dihed  =     42199.5019 E_impro  =      1797.3094 E_vdwl   =    -16284.2162 
E_coul   =   1665686.8722 E_long   =  -2177353.2889 Press    =         8.1194 
Volume   =   2468255.8839 
---------------- Step     8550 ----- CPU =   2253.1911 (sec) ----------------
TotEng   =   -202698.7597 KinEng   =    171662.1935 Temp     =       299.2093 
PotEng   =   -374360.9533 E_bond   =     20823.7007 E_angle  =     89023.1730 
E_dihed  =     42083.4918 E_impro  =      1780.8395 E_vdwl   =    -16320.9392 
E_coul   =   1665583.0926 E_long   =  -2177334.3116 Press    =       -93.3324 
Volume   =   2468718.2894 
---------------- Step     8600 ----- CPU =   2266.3713 (sec) ----------------
TotEng   =   -202476.9151 KinEng   =    172062.1869 Temp     =       299.9065 
PotEng   =   -374539.1021 E_bond   =     20806.9574 E_angle  =     88613.6790 
E_dihed  =     42080.0359 E_impro  =      1810.2375 E_vdwl   =    -16545.7349 
E_coul   =   1665993.5281 E_long   =  -2177297.8050 Press    =      -143.1408 
Volume   =   2469056.7061 
---------------- Step     8650 ----- CPU =   2279.5408 (sec) ----------------
TotEng   =   -201650.1199 KinEng   =    172287.8163 Temp     =       300.2997 
PotEng   =   -373937.9361 E_bond   =     20757.5434 E_angle  =     88896.3219 
E_dihed  =     42219.6492 E_impro  =      1831.5721 E_vdwl   =    -15915.6049 
E_coul   =   1665585.3350 E_long   =  -2177312.7529 Press    =        29.3700 
Volume   =   2469349.7295 
---------------- Step     8700 ----- CPU =   2292.7185 (sec) ----------------
TotEng   =   -201317.4620 KinEng   =    172449.2321 Temp     =       300.5811 
PotEng   =   -373766.6941 E_bond   =     20634.8744 E_angle  =     89216.1816 
E_dihed  =     42246.8694 E_impro  =      1766.6510 E_vdwl   =    -16010.7383 
E_coul   =   1665725.2471 E_long   =  -2177345.7794 Press    =        -2.5274 
Volume   =   2469283.9390 
---------------- Step     8750 ----- CPU =   2305.8870 (sec) ----------------
TotEng   =   -201777.9822 KinEng   =    172393.4703 Temp     =       300.4839 
PotEng   =   -374171.4525 E_bond   =     20888.3024 E_angle  =     88659.8343 
E_dihed  =     42223.1745 E_impro  =      1787.5352 E_vdwl   =    -16433.7557 
E_coul   =   1666025.7087 E_long   =  -2177322.2519 Press    =      -119.8681 
Volume   =   2469060.3450 
---------------- Step     8800 ----- CPU =   2319.3118 (sec) ----------------
TotEng   =   -202666.9071 KinEng   =    171923.0876 Temp     =       299.6640 
PotEng   =   -374589.9947 E_bond   =     20820.7074 E_angle  =     88839.2766 
E_dihed  =     42221.4991 E_impro  =      1807.5437 E_vdwl   =    -16684.7271 
E_coul   =   1665733.2365 E_long   =  -2177327.5309 Press    =      -115.8716 
Volume   =   2468659.7157 
---------------- Step     8850 ----- CPU =   2332.5026 (sec) ----------------
TotEng   =   -203111.8310 KinEng   =    171405.7938 Temp     =       298.7624 
PotEng   =   -374517.6248 E_bond   =     20856.2852 E_angle  =     88776.7305 
E_dihed  =     42049.8242 E_impro  =      1757.2787 E_vdwl   =    -16371.6813 
E_coul   =   1665725.0673 E_long   =  -2177311.1294 Press    =       -92.1332 
Volume   =   2468511.8628 
---------------- Step     8900 ----- CPU =   2345.4473 (sec) ----------------
TotEng   =   -202525.9447 KinEng   =    172067.5366 Temp     =       299.9158 
PotEng   =   -374593.4812 E_bond   =     20577.8392 E_angle  =     88829.3222 
E_dihed  =     42085.6728 E_impro  =      1747.9653 E_vdwl   =    -16450.3848 
E_coul   =   1665951.7143 E_long   =  -2177335.6102 Press    =       -99.6425 
Volume   =   2468261.0801 
---------------- Step     8950 ----- CPU =   2358.8872 (sec) ----------------
TotEng   =   -201485.9998 KinEng   =    172173.1757 Temp     =       300.0999 
PotEng   =   -373659.1755 E_bond   =     20838.1680 E_angle  =     88917.3493 
E_dihed  =     42202.4887 E_impro  =      1818.6079 E_vdwl   =    -16219.4366 
E_coul   =   1666079.6814 E_long   =  -2177296.0343 Press    =        -2.3773 
Volume   =   2467825.2029 
---------------- Step     9000 ----- CPU =   2372.0897 (sec) ----------------
TotEng   =   -200961.6869 KinEng   =    172404.1572 Temp     =       300.5025 
PotEng   =   -373365.8441 E_bond   =     20786.2078 E_angle  =     89216.8724 
E_dihed  =     42473.0637 E_impro  =      1816.8967 E_vdwl   =    -16213.5272 
E_coul   =   1665814.5521 E_long   =  -2177259.9095 Press    =       -80.2681 
Volume   =   2467599.9562 
---------------- Step     9050 ----- CPU =   2385.2925 (sec) ----------------
TotEng   =   -201660.3785 KinEng   =    172184.8123 Temp     =       300.1202 
PotEng   =   -373845.1908 E_bond   =     20878.6132 E_angle  =     89369.0535 
E_dihed  =     41994.1913 E_impro  =      1766.9209 E_vdwl   =    -16413.6743 
E_coul   =   1665854.8521 E_long   =  -2177295.1475 Press    =       -50.5712 
Volume   =   2468032.3302 
---------------- Step     9100 ----- CPU =   2398.4788 (sec) ----------------
TotEng   =   -202710.9956 KinEng   =    171641.0400 Temp     =       299.1724 
PotEng   =   -374352.0356 E_bond   =     20909.9599 E_angle  =     88862.1209 
E_dihed  =     42159.9487 E_impro  =      1826.9157 E_vdwl   =    -16495.8867 
E_coul   =   1665724.3543 E_long   =  -2177339.4484 Press    =      -117.7061 
Volume   =   2468205.8928 
---------------- Step     9150 ----- CPU =   2411.6735 (sec) ----------------
TotEng   =   -202953.4490 KinEng   =    171677.5899 Temp     =       299.2361 
PotEng   =   -374631.0389 E_bond   =     20666.8994 E_angle  =     88926.8031 
E_dihed  =     42133.2532 E_impro  =      1820.7447 E_vdwl   =    -16347.4012 
E_coul   =   1665477.8810 E_long   =  -2177309.2191 Press    =       133.1788 
Volume   =   2467676.1538 
---------------- Step     9200 ----- CPU =   2424.8692 (sec) ----------------
TotEng   =   -202623.1952 KinEng   =    171947.4009 Temp     =       299.7064 
PotEng   =   -374570.5961 E_bond   =     20574.0141 E_angle  =     88644.6811 
E_dihed  =     42193.5685 E_impro  =      1768.3536 E_vdwl   =    -16388.7906 
E_coul   =   1665891.4864 E_long   =  -2177253.9092 Press    =       102.4448 
Volume   =   2467429.8870 
---------------- Step     9250 ----- CPU =   2438.0779 (sec) ----------------
TotEng   =   -201920.8224 KinEng   =    172313.7377 Temp     =       300.3449 
PotEng   =   -374234.5601 E_bond   =     20913.9815 E_angle  =     88855.8062 
E_dihed  =     42164.5012 E_impro  =      1785.2083 E_vdwl   =    -15948.8587 
E_coul   =   1665301.1359 E_long   =  -2177306.3345 Press    =      -104.2044 
Volume   =   2467631.9647 
---------------- Step     9300 ----- CPU =   2451.5162 (sec) ----------------
TotEng   =   -201515.9839 KinEng   =    172398.5268 Temp     =       300.4927 
PotEng   =   -373914.5107 E_bond   =     20797.9124 E_angle  =     89071.4108 
E_dihed  =     42069.7644 E_impro  =      1855.4193 E_vdwl   =    -15911.6117 
E_coul   =   1665508.1188 E_long   =  -2177305.5246 Press    =       -32.0264 
Volume   =   2467791.2041 
---------------- Step     9350 ----- CPU =   2464.7204 (sec) ----------------
TotEng   =   -201835.3645 KinEng   =    172581.7912 Temp     =       300.8121 
PotEng   =   -374417.1556 E_bond   =     20704.6356 E_angle  =     89167.5174 
E_dihed  =     42124.2722 E_impro  =      1771.4115 E_vdwl   =    -16380.2791 
E_coul   =   1665496.8962 E_long   =  -2177301.6095 Press    =       -65.3654 
Volume   =   2468176.4222 
---------------- Step     9400 ----- CPU =   2477.9163 (sec) ----------------
TotEng   =   -202683.4584 KinEng   =    171847.5295 Temp     =       299.5323 
PotEng   =   -374530.9879 E_bond   =     20692.5325 E_angle  =     89372.1859 
E_dihed  =     42085.6513 E_impro  =      1802.2069 E_vdwl   =    -16037.5532 
E_coul   =   1664862.3086 E_long   =  -2177308.3198 Press    =       -90.4952 
Volume   =   2468600.9580 
---------------- Step     9450 ----- CPU =   2491.1101 (sec) ----------------
TotEng   =   -203449.3084 KinEng   =    171796.5416 Temp     =       299.4434 
PotEng   =   -375245.8500 E_bond   =     20677.0704 E_angle  =     88781.0325 
E_dihed  =     41951.7755 E_impro  =      1757.4711 E_vdwl   =    -16418.3492 
E_coul   =   1665341.5115 E_long   =  -2177336.3618 Press    =        -2.8700 
Volume   =   2469100.5232 
---------------- Step     9500 ----- CPU =   2504.2827 (sec) ----------------
TotEng   =   -203298.6174 KinEng   =    171673.3086 Temp     =       299.2286 
PotEng   =   -374971.9260 E_bond   =     20750.6974 E_angle  =     88783.2964 
E_dihed  =     41989.9948 E_impro  =      1825.2369 E_vdwl   =    -15970.0149 
E_coul   =   1664976.2324 E_long   =  -2177327.3690 Press    =       -45.8207 
Volume   =   2469241.5911 
---------------- Step     9550 ----- CPU =   2517.4773 (sec) ----------------
TotEng   =   -202557.9583 KinEng   =    171985.4298 Temp     =       299.7727 
PotEng   =   -374543.3881 E_bond   =     20688.5164 E_angle  =     89092.7397 
E_dihed  =     42129.5178 E_impro  =      1788.3741 E_vdwl   =    -15932.7050 
E_coul   =   1665004.4770 E_long   =  -2177314.3081 Press    =        52.0108 
Volume   =   2469535.1324 
---------------- Step     9600 ----- CPU =   2530.6700 (sec) ----------------
TotEng   =   -202017.7501 KinEng   =    172805.5083 Temp     =       301.2021 
PotEng   =   -374823.2585 E_bond   =     20725.3417 E_angle  =     88926.8626 
E_dihed  =     41993.4426 E_impro  =      1810.9144 E_vdwl   =    -15878.3521 
E_coul   =   1664892.2327 E_long   =  -2177293.7004 Press    =       -21.5436 
Volume   =   2469777.3362 
---------------- Step     9650 ----- CPU =   2543.8501 (sec) ----------------
TotEng   =   -202140.5563 KinEng   =    172250.4022 Temp     =       300.2345 
PotEng   =   -374390.9585 E_bond   =     20777.7338 E_angle  =     89110.2463 
E_dihed  =     42089.4630 E_impro  =      1762.9995 E_vdwl   =    -16478.2480 
E_coul   =   1665622.4524 E_long   =  -2177275.6055 Press    =       -19.6713 
Volume   =   2470122.9468 
---------------- Step     9700 ----- CPU =   2557.0554 (sec) ----------------
TotEng   =   -202555.7114 KinEng   =    172060.8169 Temp     =       299.9041 
PotEng   =   -374616.5282 E_bond   =     20680.8904 E_angle  =     88629.4667 
E_dihed  =     42182.9160 E_impro  =      1789.4678 E_vdwl   =    -15940.7758 
E_coul   =   1665330.7297 E_long   =  -2177289.2230 Press    =        76.6835 
Volume   =   2470220.5384 
---------------- Step     9750 ----- CPU =   2570.2477 (sec) ----------------
TotEng   =   -202600.3907 KinEng   =    171950.8620 Temp     =       299.7124 
PotEng   =   -374551.2526 E_bond   =     20812.2321 E_angle  =     88820.4107 
E_dihed  =     42192.9773 E_impro  =      1801.7282 E_vdwl   =    -16169.5591 
E_coul   =   1665278.9217 E_long   =  -2177287.9635 Press    =      -132.4748 
Volume   =   2470568.3941 
---------------- Step     9800 ----- CPU =   2583.4408 (sec) ----------------
TotEng   =   -202264.7978 KinEng   =    172344.1853 Temp     =       300.3980 
PotEng   =   -374608.9831 E_bond   =     20850.8762 E_angle  =     88736.4166 
E_dihed  =     42076.6901 E_impro  =      1831.0174 E_vdwl   =    -16068.6273 
E_coul   =   1665241.1950 E_long   =  -2177276.5510 Press    =         1.3194 
Volume   =   2470605.8662 
---------------- Step     9850 ----- CPU =   2596.6404 (sec) ----------------
TotEng   =   -201912.2942 KinEng   =    172283.5911 Temp     =       300.2924 
PotEng   =   -374195.8853 E_bond   =     20670.8278 E_angle  =     88964.4518 
E_dihed  =     42247.5146 E_impro  =      1809.3607 E_vdwl   =    -16404.8919 
E_coul   =   1665834.4564 E_long   =  -2177317.6046 Press    =      -112.9768 
Volume   =   2470401.1163 
---------------- Step     9900 ----- CPU =   2609.5827 (sec) ----------------
TotEng   =   -201977.1114 KinEng   =    172321.3599 Temp     =       300.3582 
PotEng   =   -374298.4714 E_bond   =     20920.5201 E_angle  =     89020.6662 
E_dihed  =     42203.9975 E_impro  =      1797.6773 E_vdwl   =    -16384.9542 
E_coul   =   1665461.5832 E_long   =  -2177317.9615 Press    =      -188.8354 
Volume   =   2470256.3930 
---------------- Step     9950 ----- CPU =   2622.7791 (sec) ----------------
TotEng   =   -202418.3639 KinEng   =    171959.8499 Temp     =       299.7281 
PotEng   =   -374378.2138 E_bond   =     20615.5223 E_angle  =     89147.0734 
E_dihed  =     42134.3022 E_impro  =      1832.5884 E_vdwl   =    -16224.6546 
E_coul   =   1665446.2584 E_long   =  -2177329.3040 Press    =        18.6164 
Volume   =   2469908.5182 
---------------- Step    10000 ----- CPU =   2635.9607 (sec) ----------------
TotEng   =   -202800.5032 KinEng   =    171728.2292 Temp     =       299.3244 
PotEng   =   -374528.7324 E_bond   =     20959.9917 E_angle  =     88761.9428 
E_dihed  =     42301.0511 E_impro  =      1803.6348 E_vdwl   =    -16147.3879 
E_coul   =   1665106.4869 E_long   =  -2177314.4518 Press    =       -32.0253 
Volume   =   2469549.9775 
Loop time of 2635.96 on 2 procs for 10000 steps with 256000 atoms

Performance: 0.656 ns/day, 36.611 hours/ns, 3.794 timesteps/s
99.9% CPU use with 2 MPI tasks x 1 OpenMP threads

MPI task timing breakdown:
Section |  min time  |  avg time  |  max time  |%varavg| %total
---------------------------------------------------------------
Pair    | 1737.7     | 1739.3     | 1740.8     |   3.8 | 65.98
Bond    | 105.32     | 105.34     | 105.36     |   0.2 |  4.00
Kspace  | 249.43     | 250.97     | 252.51     |   9.7 |  9.52
Neigh   | 237.99     | 238.02     | 238.05     |   0.2 |  9.03
Comm    | 73.206     | 73.256     | 73.306     |   0.6 |  2.78
Output  | 0.046642   | 0.048605   | 0.050569   |   0.9 |  0.00
Modify  | 222.75     | 222.8      | 222.86     |   0.4 |  8.45
Other   |            | 6.266      |            |       |  0.24

Nlocal:         128000 ave      128026 max      127974 min
Histogram: 1 0 0 0 0 0 0 0 0 1
Nghost:         109873 ave      110055 max      109691 min
Histogram: 1 0 0 0 0 0 0 0 0 1
Neighs:    4.80196e+07 ave 4.81454e+07 max 4.78937e+07 min
Histogram: 1 0 0 0 0 0 0 0 0 1

Total # of neighbors = 96039140
Ave neighs/atom = 375.15289
Ave special neighs/atom = 7.431875
Neighbor list builds = 1209
Dangerous builds = 0
Total wall time: 0:43:57
Intel(R) VTune(TM) Profiler 2022.2.0 collection completed successfully. Use the "aps --report /home/ubuntu/lammps/bench/aps_result_20220703" command to generate textual and HTML reports for the profiling session.
