LAMMPS (7 Jan 2022)
  using 1 OpenMP thread(s) per MPI task
Reading data file ...
  orthogonal box = (-27.5 -38.5 -36.3646) to (27.5 38.5 36.3615)
  2 by 4 by 4 MPI processor grid
  reading atoms ...
  32000 atoms
  reading velocities ...
  32000 velocities
  scanning bonds ...
  4 = max bonds/atom
  scanning angles ...
  8 = max angles/atom
  scanning dihedrals ...
  18 = max dihedrals/atom
  scanning impropers ...
  2 = max impropers/atom
  reading bonds ...
  27723 bonds
  reading angles ...
  40467 angles
  reading dihedrals ...
  56829 dihedrals
  reading impropers ...
  1034 impropers
Finding 1-2 1-3 1-4 neighbors ...
  special bond factors lj:    0        0        0       
  special bond factors coul:  0        0        0       
     4 = max # of 1-2 neighbors
    12 = max # of 1-3 neighbors
    24 = max # of 1-4 neighbors
    26 = max # of special neighbors
  special bonds CPU = 0.004 seconds
  read_data CPU = 0.252 seconds
Replicating atoms ...
  orthogonal box = (-27.5 -38.5 -36.3646) to (192.5 269.5 254.5398)
  2 by 4 by 4 MPI processor grid
  2048000 atoms
  1774272 bonds
  2589888 angles
  3637056 dihedrals
  66176 impropers
Finding 1-2 1-3 1-4 neighbors ...
  special bond factors lj:    0        0        0       
  special bond factors coul:  0        0        0       
     4 = max # of 1-2 neighbors
    12 = max # of 1-3 neighbors
    24 = max # of 1-4 neighbors
    26 = max # of special neighbors
  special bonds CPU = 0.065 seconds
  replicate CPU = 0.130 seconds
Finding SHAKE clusters ...
  103488 = # of size 2 clusters
  232512 = # of size 3 clusters
   47808 = # of size 4 clusters
  270912 = # of frozen angles
  find clusters CPU = 0.031 seconds
PPPM initialization ...
  using 12-bit tables for long-range coulomb (../kspace.cpp:340)
  G vector (1/distance) = 0.25045586
  grid = 90 120 120
  stencil order = 7
  estimated absolute RMS force accuracy = 0.032785255
  estimated relative force accuracy = 9.8731821e-05
  using single precision MKL FFT
  3d grid and FFT values/proc = 71188 43200
----------------------------------------------------------
Using INTEL Package without Coprocessor.
Compiler: Intel Classic C++ 20.21.5 / Intel(R) C++ g++ 9.3 mode
SIMD compiler directives: Enabled
Precision: mixed
----------------------------------------------------------
  generated 2278 of 2278 mixed pair_coeff terms from arithmetic mixing rule
Neighbor list info ...
  update every 1 steps, delay 5 steps, check yes
  max neighbors/atom: 2000, page size: 100000
  master list distance cutoff = 12
  ghost atom cutoff = 12
  binsize = 6, bins = 37 52 49
  1 neighbor lists, perpetual/occasional/extra = 1 0 0
  (1) pair lj/charmm/coul/long/intel, perpetual
      attributes: half, newton on, intel
      pair build: half/bin/newton/intel
      stencil: half/bin/3d
      bin: intel
Setting up Verlet run ...
  Unit style    : real
  Current step  : 0
  Time step     : 2
Per MPI rank memory allocation (min/avg/max) = 717.6 | 717.7 | 717.8 Mbytes
---------------- Step        0 ----- CPU =      0.0000 (sec) ----------------
TotEng   =  -1622915.6798 KinEng   =   1372469.2022 Temp     =       299.0274 
PotEng   =  -2995384.8820 E_bond   =    162431.7410 E_angle  =    698967.9457 
E_dihed  =    333554.2808 E_impro  =     13664.8915 E_vdwl   =   -147703.2770 
E_coul   =  13362001.3166 E_long   = -17418301.7807 Press    =      -148.3958 
Volume   =  19711682.1440 
---------------- Step       50 ----- CPU =      7.6710 (sec) ----------------
TotEng   =  -1621183.6607 KinEng   =   1376067.8767 Temp     =       299.8115 
PotEng   =  -2997251.5374 E_bond   =    158192.9657 E_angle  =    693548.5978 
E_dihed  =    335338.8800 E_impro  =     14535.9478 E_vdwl   =   -127558.7771 
E_coul   =  13347432.7104 E_long   = -17418741.8619 Press    =       238.9872 
Volume   =  19714046.0026 
---------------- Step      100 ----- CPU =     14.9824 (sec) ----------------
TotEng   =  -1618557.7252 KinEng   =   1381768.2255 Temp     =       301.0535 
PotEng   =  -3000325.9507 E_bond   =    164353.2781 E_angle  =    690067.5515 
E_dihed  =    332721.4743 E_impro  =     13872.9111 E_vdwl   =   -121547.6266 
E_coul   =  13338615.7854 E_long   = -17418409.3244 Press    =        13.8285 
Volume   =  19720671.9016 
---------------- Step      150 ----- CPU =     22.2856 (sec) ----------------
TotEng   =  -1616497.8252 KinEng   =   1378028.8103 Temp     =       300.2387 
PotEng   =  -2994526.6354 E_bond   =    163635.4263 E_angle  =    694682.8971 
E_dihed  =    336936.0716 E_impro  =     12996.7671 E_vdwl   =   -132627.2124 
E_coul   =  13347654.6385 E_long   = -17417805.2237 Press    =       245.4785 
Volume   =  19745198.4889 
---------------- Step      200 ----- CPU =     29.5765 (sec) ----------------
TotEng   =  -1605083.9941 KinEng   =   1377868.3359 Temp     =       300.2038 
PotEng   =  -2982952.3299 E_bond   =    159327.0956 E_angle  =    708809.7457 
E_dihed  =    334154.5644 E_impro  =     14881.3869 E_vdwl   =   -137567.6092 
E_coul   =  13355400.7457 E_long   = -17417958.2591 Press    =        45.4538 
Volume   =  19775932.3992 
---------------- Step      250 ----- CPU =     36.8781 (sec) ----------------
TotEng   =  -1597199.2649 KinEng   =   1381147.4094 Temp     =       300.9182 
PotEng   =  -2978346.6743 E_bond   =    162680.6649 E_angle  =    710413.3460 
E_dihed  =    335621.6104 E_impro  =     13601.8613 E_vdwl   =   -136280.5114 
E_coul   =  13354589.6334 E_long   = -17418973.2788 Press    =      -138.7252 
Volume   =  19801211.6738 
---------------- Step      300 ----- CPU =     44.0206 (sec) ----------------
TotEng   =  -1602531.7884 KinEng   =   1372928.8753 Temp     =       299.1276 
PotEng   =  -2975460.6637 E_bond   =    163837.4944 E_angle  =    698870.3772 
E_dihed  =    334180.2799 E_impro  =     14276.4280 E_vdwl   =   -143280.6413 
E_coul   =  13374118.3420 E_long   = -17417462.9439 Press    =      -414.9444 
Volume   =  19820474.1283 
---------------- Step      350 ----- CPU =     51.4920 (sec) ----------------
TotEng   =  -1612268.9076 KinEng   =   1378018.8630 Temp     =       300.2366 
PotEng   =  -2990287.7706 E_bond   =    164640.5078 E_angle  =    700479.7185 
E_dihed  =    336349.9183 E_impro  =     13330.4472 E_vdwl   =   -140208.7384 
E_coul   =  13352806.2714 E_long   = -17417685.8954 Press    =      -428.5151 
Volume   =  19828225.8068 
---------------- Step      400 ----- CPU =     58.8135 (sec) ----------------
TotEng   =  -1620627.6512 KinEng   =   1372190.5462 Temp     =       298.9667 
PotEng   =  -2992818.1974 E_bond   =    161991.6781 E_angle  =    698105.0787 
E_dihed  =    334786.5201 E_impro  =     14000.9286 E_vdwl   =   -132521.9167 
E_coul   =  13349148.9456 E_long   = -17418329.4318 Press    =       151.0091 
Volume   =  19826988.0330 
---------------- Step      450 ----- CPU =     66.2983 (sec) ----------------
TotEng   =  -1622046.3530 KinEng   =   1372280.5636 Temp     =       298.9863 
PotEng   =  -2994326.9166 E_bond   =    159557.1511 E_angle  =    697043.4722 
E_dihed  =    337173.4612 E_impro  =     14347.6146 E_vdwl   =   -136105.7917 
E_coul   =  13351212.3327 E_long   = -17417555.1566 Press    =       230.0917 
Volume   =  19824329.4595 
---------------- Step      500 ----- CPU =     73.7781 (sec) ----------------
TotEng   =  -1605576.7274 KinEng   =   1376484.2819 Temp     =       299.9022 
PotEng   =  -2982061.0093 E_bond   =    164825.7160 E_angle  =    697957.5068 
E_dihed  =    336818.5143 E_impro  =     14103.5434 E_vdwl   =   -131741.2799 
E_coul   =  13353671.7544 E_long   = -17417696.7643 Press    =      -148.5552 
Volume   =  19823866.5541 
---------------- Step      550 ----- CPU =     81.2594 (sec) ----------------
TotEng   =  -1589502.9781 KinEng   =   1387269.6397 Temp     =       302.2521 
PotEng   =  -2976772.6178 E_bond   =    162529.5681 E_angle  =    701353.5322 
E_dihed  =    333272.1543 E_impro  =     14810.9791 E_vdwl   =   -128433.7328 
E_coul   =  13357519.7498 E_long   = -17417824.8686 Press    =       410.2541 
Volume   =  19831021.6914 
---------------- Step      600 ----- CPU =     88.5733 (sec) ----------------
TotEng   =  -1589283.2432 KinEng   =   1389012.9322 Temp     =       302.6319 
PotEng   =  -2978296.1754 E_bond   =    163356.8110 E_angle  =    704058.1205 
E_dihed  =    336155.6116 E_impro  =     14124.9451 E_vdwl   =   -140374.5472 
E_coul   =  13362351.0278 E_long   = -17417968.1442 Press    =        30.1247 
Volume   =  19847999.7412 
---------------- Step      650 ----- CPU =     96.0506 (sec) ----------------
TotEng   =  -1603764.4786 KinEng   =   1379482.8638 Temp     =       300.5555 
PotEng   =  -2983247.3424 E_bond   =    161878.9390 E_angle  =    692799.5149 
E_dihed  =    335698.8852 E_impro  =     13719.5339 E_vdwl   =   -138119.3059 
E_coul   =  13368798.7207 E_long   = -17418023.6301 Press    =      -122.2474 
Volume   =  19861077.5201 
---------------- Step      700 ----- CPU =    103.5280 (sec) ----------------
TotEng   =  -1613357.4817 KinEng   =   1374083.0975 Temp     =       299.3791 
PotEng   =  -2987440.5792 E_bond   =    159862.0566 E_angle  =    699016.7032 
E_dihed  =    335556.2665 E_impro  =     13826.4256 E_vdwl   =   -139364.2372 
E_coul   =  13361603.6039 E_long   = -17417941.3979 Press    =        91.8973 
Volume   =  19871691.6136 
---------------- Step      750 ----- CPU =    111.0022 (sec) ----------------
TotEng   =  -1613027.1580 KinEng   =   1369806.3803 Temp     =       298.4473 
PotEng   =  -2982833.5383 E_bond   =    163369.8188 E_angle  =    703988.3287 
E_dihed  =    337148.8999 E_impro  =     13557.1059 E_vdwl   =   -136860.8800 
E_coul   =  13354266.9831 E_long   = -17418303.7946 Press    =       120.6141 
Volume   =  19876607.9311 
---------------- Step      800 ----- CPU =    118.3274 (sec) ----------------
TotEng   =  -1606622.7278 KinEng   =   1375402.4994 Temp     =       299.6665 
PotEng   =  -2982025.2272 E_bond   =    161306.1135 E_angle  =    703998.2530 
E_dihed  =    337891.6531 E_impro  =     14106.2681 E_vdwl   =   -133284.5184 
E_coul   =  13351681.1158 E_long   = -17417724.1122 Press    =        23.0024 
Volume   =  19876226.4185 
---------------- Step      850 ----- CPU =    125.8017 (sec) ----------------
TotEng   =  -1597486.9418 KinEng   =   1379989.3486 Temp     =       300.6659 
PotEng   =  -2977476.2904 E_bond   =    162972.9367 E_angle  =    702954.9185 
E_dihed  =    337238.8074 E_impro  =     14177.4771 E_vdwl   =   -132932.1109 
E_coul   =  13355973.7214 E_long   = -17417862.0406 Press    =        65.0871 
Volume   =  19870645.2904 
---------------- Step      900 ----- CPU =    133.2714 (sec) ----------------
TotEng   =  -1592679.0633 KinEng   =   1380427.1968 Temp     =       300.7613 
PotEng   =  -2973106.2600 E_bond   =    161572.3678 E_angle  =    703733.5524 
E_dihed  =    338532.2294 E_impro  =     15092.1594 E_vdwl   =   -131023.2969 
E_coul   =  13356677.4539 E_long   = -17417690.7260 Press    =       189.5282 
Volume   =  19859543.7695 
---------------- Step      950 ----- CPU =    140.7536 (sec) ----------------
TotEng   =  -1595755.2057 KinEng   =   1377182.3452 Temp     =       300.0543 
PotEng   =  -2972937.5509 E_bond   =    163455.6183 E_angle  =    706660.2487 
E_dihed  =    337948.8762 E_impro  =     14951.3125 E_vdwl   =   -133576.6178 
E_coul   =  13355219.2251 E_long   = -17417596.2138 Press    =       -64.2188 
Volume   =  19848268.7692 
---------------- Step     1000 ----- CPU =    148.0798 (sec) ----------------
TotEng   =  -1604701.3446 KinEng   =   1375390.0267 Temp     =       299.6638 
PotEng   =  -2980091.3713 E_bond   =    163922.2928 E_angle  =    704797.1601 
E_dihed  =    336308.3179 E_impro  =     14042.7587 E_vdwl   =   -136074.6598 
E_coul   =  13354827.6501 E_long   = -17417914.8912 Press    =         3.0360 
Volume   =  19839423.8967 
---------------- Step     1050 ----- CPU =    155.5619 (sec) ----------------
TotEng   =  -1612033.3603 KinEng   =   1375176.6959 Temp     =       299.6173 
PotEng   =  -2987210.0562 E_bond   =    162595.1339 E_angle  =    701245.3212 
E_dihed  =    335521.4759 E_impro  =     14300.7310 E_vdwl   =   -134555.3128 
E_coul   =  13351694.9951 E_long   = -17418012.4006 Press    =      -119.4164 
Volume   =  19832129.5969 
---------------- Step     1100 ----- CPU =    163.0521 (sec) ----------------
TotEng   =  -1612737.6724 KinEng   =   1371653.9925 Temp     =       298.8498 
PotEng   =  -2984391.6649 E_bond   =    162865.8663 E_angle  =    703157.8000 
E_dihed  =    336836.7397 E_impro  =     14716.2485 E_vdwl   =   -135307.7089 
E_coul   =  13351579.2959 E_long   = -17418239.9063 Press    =        89.8355 
Volume   =  19824231.8853 
---------------- Step     1150 ----- CPU =    170.3845 (sec) ----------------
TotEng   =  -1607332.6301 KinEng   =   1377084.4916 Temp     =       300.0330 
PotEng   =  -2984417.1217 E_bond   =    164502.5918 E_angle  =    701108.9690 
E_dihed  =    337034.8014 E_impro  =     14208.6788 E_vdwl   =   -132703.3526 
E_coul   =  13349616.0622 E_long   = -17418184.8723 Press    =        50.4646 
Volume   =  19816575.7625 
---------------- Step     1200 ----- CPU =    177.8759 (sec) ----------------
TotEng   =  -1601283.2799 KinEng   =   1380756.8461 Temp     =       300.8331 
PotEng   =  -2982040.1260 E_bond   =    165402.5723 E_angle  =    701099.8498 
E_dihed  =    336428.1296 E_impro  =     14309.0184 E_vdwl   =   -133248.9848 
E_coul   =  13352069.0429 E_long   = -17418099.7542 Press    =        52.5153 
Volume   =  19810154.2377 
---------------- Step     1250 ----- CPU =    185.3685 (sec) ----------------
TotEng   =  -1599808.2535 KinEng   =   1378844.8008 Temp     =       300.4165 
PotEng   =  -2978653.0543 E_bond   =    164039.4183 E_angle  =    704120.1820 
E_dihed  =    336529.0737 E_impro  =     14305.8871 E_vdwl   =   -132711.1174 
E_coul   =  13353126.6912 E_long   = -17418063.1892 Press    =       100.7612 
Volume   =  19809190.5616 
---------------- Step     1300 ----- CPU =    192.7039 (sec) ----------------
TotEng   =  -1603575.5024 KinEng   =   1378246.0226 Temp     =       300.2861 
PotEng   =  -2981821.5249 E_bond   =    165494.5657 E_angle  =    702460.9251 
E_dihed  =    337344.7523 E_impro  =     14573.2419 E_vdwl   =   -135525.0968 
E_coul   =  13351983.3704 E_long   = -17418153.2834 Press    =      -133.5690 
Volume   =  19810019.0608 
---------------- Step     1350 ----- CPU =    200.1982 (sec) ----------------
TotEng   =  -1608411.9017 KinEng   =   1375035.6664 Temp     =       299.5866 
PotEng   =  -2983447.5681 E_bond   =    164381.2798 E_angle  =    702530.8723 
E_dihed  =    336739.8240 E_impro  =     14419.1880 E_vdwl   =   -134601.1919 
E_coul   =  13351184.1768 E_long   = -17418101.7172 Press    =       -42.5512 
Volume   =  19809794.8995 
---------------- Step     1400 ----- CPU =    207.6881 (sec) ----------------
TotEng   =  -1610931.5327 KinEng   =   1375964.4821 Temp     =       299.7890 
PotEng   =  -2986896.0148 E_bond   =    163787.3951 E_angle  =    700826.4925 
E_dihed  =    336586.5317 E_impro  =     14304.3887 E_vdwl   =   -133521.0804 
E_coul   =  13349350.2239 E_long   = -17418229.9663 Press    =        28.8779 
Volume   =  19809700.5246 
---------------- Step     1450 ----- CPU =    215.0159 (sec) ----------------
TotEng   =  -1608950.4335 KinEng   =   1376532.7375 Temp     =       299.9128 
PotEng   =  -2985483.1711 E_bond   =    164138.4131 E_angle  =    702260.3140 
E_dihed  =    337094.2014 E_impro  =     14461.9452 E_vdwl   =   -135115.7336 
E_coul   =  13349747.5531 E_long   = -17418069.8643 Press    =       -93.3510 
Volume   =  19808652.2708 
---------------- Step     1500 ----- CPU =    222.5108 (sec) ----------------
TotEng   =  -1604844.8461 KinEng   =   1378987.3078 Temp     =       300.4476 
PotEng   =  -2983832.1539 E_bond   =    164346.1745 E_angle  =    701938.9974 
E_dihed  =    337066.6440 E_impro  =     14395.0978 E_vdwl   =   -133833.5363 
E_coul   =  13350208.9459 E_long   = -17417954.4772 Press    =       -58.6356 
Volume   =  19806134.3371 
---------------- Step     1550 ----- CPU =    230.0031 (sec) ----------------
TotEng   =  -1602595.5072 KinEng   =   1378889.1339 Temp     =       300.4262 
PotEng   =  -2981484.6411 E_bond   =    164380.7765 E_angle  =    704589.8126 
E_dihed  =    337331.5188 E_impro  =     14396.5651 E_vdwl   =   -134545.4237 
E_coul   =  13350408.0729 E_long   = -17418045.9633 Press    =        27.6514 
Volume   =  19804893.7411 
---------------- Step     1600 ----- CPU =    237.3399 (sec) ----------------
TotEng   =  -1604541.7737 KinEng   =   1377599.8994 Temp     =       300.1453 
PotEng   =  -2982141.6731 E_bond   =    164244.5853 E_angle  =    703102.9323 
E_dihed  =    337094.2059 E_impro  =     14077.9095 E_vdwl   =   -133907.2970 
E_coul   =  13351373.4968 E_long   = -17418127.5060 Press    =        57.3620 
Volume   =  19804718.2250 
---------------- Step     1650 ----- CPU =    244.8283 (sec) ----------------
TotEng   =  -1608436.1422 KinEng   =   1375552.3037 Temp     =       299.6992 
PotEng   =  -2983988.4459 E_bond   =    164556.7431 E_angle  =    703741.1125 
E_dihed  =    336648.0928 E_impro  =     14366.5190 E_vdwl   =   -135099.9114 
E_coul   =  13349800.9600 E_long   = -17418001.9619 Press    =      -107.1155 
Volume   =  19803166.5219 
---------------- Step     1700 ----- CPU =    252.3209 (sec) ----------------
TotEng   =  -1611384.1707 KinEng   =   1374724.4281 Temp     =       299.5188 
PotEng   =  -2986108.5988 E_bond   =    164000.0006 E_angle  =    703631.0008 
E_dihed  =    336550.1136 E_impro  =     14290.2010 E_vdwl   =   -133045.0793 
E_coul   =  13346598.9301 E_long   = -17418133.7656 Press    =       104.2002 
Volume   =  19799476.7271 
---------------- Step     1750 ----- CPU =    259.8250 (sec) ----------------
TotEng   =  -1611036.0864 KinEng   =   1376542.0500 Temp     =       299.9148 
PotEng   =  -2987578.1364 E_bond   =    164055.1130 E_angle  =    703299.6988 
E_dihed  =    336164.3971 E_impro  =     14173.8844 E_vdwl   =   -135317.7953 
E_coul   =  13348225.5823 E_long   = -17418179.0166 Press    =       -12.4463 
Volume   =  19796132.6958 
---------------- Step     1800 ----- CPU =    267.1618 (sec) ----------------
TotEng   =  -1607992.9817 KinEng   =   1377198.9651 Temp     =       300.0579 
PotEng   =  -2985191.9467 E_bond   =    163768.5531 E_angle  =    703501.6317 
E_dihed  =    336534.6271 E_impro  =     14612.7289 E_vdwl   =   -134368.6637 
E_coul   =  13348888.4644 E_long   = -17418129.2883 Press    =       -71.9740 
Volume   =  19793739.3312 
---------------- Step     1850 ----- CPU =    274.6525 (sec) ----------------
TotEng   =  -1605113.1851 KinEng   =   1378322.2533 Temp     =       300.3027 
PotEng   =  -2983435.4385 E_bond   =    164544.3627 E_angle  =    704412.6333 
E_dihed  =    336797.2952 E_impro  =     14292.0210 E_vdwl   =   -134752.9706 
E_coul   =  13349424.5335 E_long   = -17418153.3136 Press    =        49.2104 
Volume   =  19791267.3820 
---------------- Step     1900 ----- CPU =    282.1564 (sec) ----------------
TotEng   =  -1604699.3790 KinEng   =   1378553.3648 Temp     =       300.3530 
PotEng   =  -2983252.7438 E_bond   =    164777.7922 E_angle  =    704955.2005 
E_dihed  =    336790.0572 E_impro  =     14421.8746 E_vdwl   =   -134170.2695 
E_coul   =  13348106.0648 E_long   = -17418133.4636 Press    =       -45.7580 
Volume   =  19788246.5106 
---------------- Step     1950 ----- CPU =    289.4890 (sec) ----------------
TotEng   =  -1607114.8647 KinEng   =   1377002.3035 Temp     =       300.0151 
PotEng   =  -2984117.1682 E_bond   =    163705.6415 E_angle  =    703969.4707 
E_dihed  =    336778.2054 E_impro  =     14369.8534 E_vdwl   =   -133259.7123 
E_coul   =  13348402.2666 E_long   = -17418082.8935 Press    =         6.1831 
Volume   =  19786761.0431 
---------------- Step     2000 ----- CPU =    296.9946 (sec) ----------------
TotEng   =  -1610115.6047 KinEng   =   1376559.1864 Temp     =       299.9185 
PotEng   =  -2986674.7911 E_bond   =    164351.7592 E_angle  =    704342.4083 
E_dihed  =    336706.7491 E_impro  =     14412.7928 E_vdwl   =   -135291.2741 
E_coul   =  13346915.5871 E_long   = -17418112.8135 Press    =       -26.8926 
Volume   =  19787327.6337 
---------------- Step     2050 ----- CPU =    304.6444 (sec) ----------------
TotEng   =  -1611442.6591 KinEng   =   1374939.7219 Temp     =       299.5657 
PotEng   =  -2986382.3810 E_bond   =    164282.1780 E_angle  =    704043.3013 
E_dihed  =    336497.1636 E_impro  =     14346.6425 E_vdwl   =   -134717.2160 
E_coul   =  13347368.8833 E_long   = -17418203.3338 Press    =        -8.2059 
Volume   =  19788866.3231 
---------------- Step     2100 ----- CPU =    312.1452 (sec) ----------------
TotEng   =  -1609507.0122 KinEng   =   1376156.6242 Temp     =       299.8308 
PotEng   =  -2985663.6364 E_bond   =    164842.6548 E_angle  =    704293.1200 
E_dihed  =    336592.3899 E_impro  =     14386.8856 E_vdwl   =   -135475.6686 
E_coul   =  13347903.2946 E_long   = -17418206.3127 Press    =       -35.4057 
Volume   =  19790029.0966 
---------------- Step     2150 ----- CPU =    319.4956 (sec) ----------------
TotEng   =  -1605970.4535 KinEng   =   1377975.8287 Temp     =       300.2272 
PotEng   =  -2983946.2822 E_bond   =    164191.7371 E_angle  =    704965.5389 
E_dihed  =    336481.6059 E_impro  =     14347.9970 E_vdwl   =   -134355.5824 
E_coul   =  13348524.1123 E_long   = -17418101.6911 Press    =       -32.7963 
Volume   =  19791129.3946 
---------------- Step     2200 ----- CPU =    326.9835 (sec) ----------------
TotEng   =  -1604288.7891 KinEng   =   1378534.6440 Temp     =       300.3490 
PotEng   =  -2982823.4331 E_bond   =    164358.0859 E_angle  =    705549.7644 
E_dihed  =    336786.4238 E_impro  =     14451.8904 E_vdwl   =   -134007.8166 
E_coul   =  13348162.6711 E_long   = -17418124.4521 Press    =       -94.7223 
Volume   =  19791689.4383 
---------------- Step     2250 ----- CPU =    334.4835 (sec) ----------------
TotEng   =  -1605071.1901 KinEng   =   1377684.3733 Temp     =       300.1637 
PotEng   =  -2982755.5635 E_bond   =    164422.7722 E_angle  =    705298.3231 
E_dihed  =    336842.3563 E_impro  =     14345.3137 E_vdwl   =   -134654.5872 
E_coul   =  13349087.3704 E_long   = -17418097.1120 Press    =        19.8438 
Volume   =  19790913.0898 
---------------- Step     2300 ----- CPU =    341.9921 (sec) ----------------
TotEng   =  -1607748.9662 KinEng   =   1376454.6614 Temp     =       299.8958 
PotEng   =  -2984203.6276 E_bond   =    164296.8550 E_angle  =    704632.2285 
E_dihed  =    337061.7593 E_impro  =     14349.3448 E_vdwl   =   -133577.4301 
E_coul   =  13347129.3266 E_long   = -17418095.7119 Press    =         1.6439 
Volume   =  19790420.7783 
---------------- Step     2350 ----- CPU =    349.3422 (sec) ----------------
TotEng   =  -1609586.5986 KinEng   =   1376943.3435 Temp     =       300.0022 
PotEng   =  -2986529.9421 E_bond   =    164546.8468 E_angle  =    703662.1728 
E_dihed  =    336253.1398 E_impro  =     14463.3710 E_vdwl   =   -135542.4442 
E_coul   =  13348305.9699 E_long   = -17418218.9983 Press    =       -68.1333 
Volume   =  19791004.9476 
---------------- Step     2400 ----- CPU =    356.8458 (sec) ----------------
TotEng   =  -1609310.2884 KinEng   =   1375756.8891 Temp     =       299.7437 
PotEng   =  -2985067.1775 E_bond   =    164183.7207 E_angle  =    705010.5111 
E_dihed  =    337112.3481 E_impro  =     14402.4214 E_vdwl   =   -133369.7368 
E_coul   =  13345736.1109 E_long   = -17418142.5530 Press    =        -4.5745 
Volume   =  19790769.3906 
---------------- Step     2450 ----- CPU =    364.3509 (sec) ----------------
TotEng   =  -1607735.1811 KinEng   =   1377372.0166 Temp     =       300.0956 
PotEng   =  -2985107.1977 E_bond   =    164453.0349 E_angle  =    706012.1747 
E_dihed  =    336366.2027 E_impro  =     14308.5585 E_vdwl   =   -134658.7152 
E_coul   =  13346485.1109 E_long   = -17418073.5642 Press    =        -4.6337 
Volume   =  19789903.2442 
---------------- Step     2500 ----- CPU =    371.8542 (sec) ----------------
TotEng   =  -1607260.1996 KinEng   =   1377250.0274 Temp     =       300.0691 
PotEng   =  -2984510.2271 E_bond   =    164059.4410 E_angle  =    706014.2054 
E_dihed  =    336557.2910 E_impro  =     14417.1264 E_vdwl   =   -134301.6433 
E_coul   =  13346959.6576 E_long   = -17418216.3052 Press    =        35.2337 
Volume   =  19789322.8648 
---------------- Step     2550 ----- CPU =    379.3648 (sec) ----------------
TotEng   =  -1608124.3516 KinEng   =   1376513.8027 Temp     =       299.9087 
PotEng   =  -2984638.1543 E_bond   =    164833.5728 E_angle  =    706064.1005 
E_dihed  =    336024.8831 E_impro  =     14456.6450 E_vdwl   =   -133964.0725 
E_coul   =  13346166.3914 E_long   = -17418219.6746 Press    =       -47.4882 
Volume   =  19788369.1163 
---------------- Step     2600 ----- CPU =    386.7151 (sec) ----------------
TotEng   =  -1609565.7902 KinEng   =   1377207.5527 Temp     =       300.0598 
PotEng   =  -2986773.3429 E_bond   =    164598.8765 E_angle  =    705734.0614 
E_dihed  =    336482.4470 E_impro  =     14376.3182 E_vdwl   =   -134174.0295 
E_coul   =  13344329.1436 E_long   = -17418120.1601 Press    =       -30.1607 
Volume   =  19786653.8909 
---------------- Step     2650 ----- CPU =    394.2169 (sec) ----------------
TotEng   =  -1610497.2201 KinEng   =   1376031.7931 Temp     =       299.8036 
PotEng   =  -2986529.0132 E_bond   =    164285.9101 E_angle  =    704848.1585 
E_dihed  =    336908.0507 E_impro  =     14474.3299 E_vdwl   =   -133268.6958 
E_coul   =  13344352.6814 E_long   = -17418129.4479 Press    =        34.5046 
Volume   =  19784486.2402 
---------------- Step     2700 ----- CPU =    401.7361 (sec) ----------------
TotEng   =  -1610029.4882 KinEng   =   1376641.6772 Temp     =       299.9365 
PotEng   =  -2986671.1654 E_bond   =    164555.2842 E_angle  =    705262.2676 
E_dihed  =    336593.9112 E_impro  =     14353.4515 E_vdwl   =   -132335.6999 
E_coul   =  13343052.3353 E_long   = -17418152.7152 Press    =       -49.5309 
Volume   =  19783505.6218 
---------------- Step     2750 ----- CPU =    409.0834 (sec) ----------------
TotEng   =  -1609092.4740 KinEng   =   1377141.7381 Temp     =       300.0455 
PotEng   =  -2986234.2120 E_bond   =    164381.4320 E_angle  =    705818.0049 
E_dihed  =    336953.4438 E_impro  =     14317.7250 E_vdwl   =   -133156.8524 
E_coul   =  13343588.4144 E_long   = -17418136.3797 Press    =        24.3236 
Volume   =  19782841.6836 
---------------- Step     2800 ----- CPU =    416.5934 (sec) ----------------
TotEng   =  -1608508.3612 KinEng   =   1378793.5174 Temp     =       300.4054 
PotEng   =  -2987301.8785 E_bond   =    164824.9891 E_angle  =    706008.1224 
E_dihed  =    336778.7338 E_impro  =     14144.9810 E_vdwl   =   -134585.3242 
E_coul   =  13343735.3554 E_long   = -17418208.7362 Press    =       -17.6482 
Volume   =  19783135.4826 
---------------- Step     2850 ----- CPU =    424.0981 (sec) ----------------
TotEng   =  -1609301.6027 KinEng   =   1376448.4364 Temp     =       299.8944 
PotEng   =  -2985750.0390 E_bond   =    164987.2957 E_angle  =    705081.5187 
E_dihed  =    337177.4837 E_impro  =     14292.3054 E_vdwl   =   -133006.8264 
E_coul   =  13344008.7321 E_long   = -17418290.5482 Press    =        -6.2167 
Volume   =  19782343.2690 
---------------- Step     2900 ----- CPU =    431.6126 (sec) ----------------
TotEng   =  -1610305.1192 KinEng   =   1376382.2336 Temp     =       299.8800 
PotEng   =  -2986687.3528 E_bond   =    164227.9188 E_angle  =    704953.3165 
E_dihed  =    336490.8504 E_impro  =     14331.3994 E_vdwl   =   -131895.7162 
E_coul   =  13343448.3657 E_long   = -17418243.4875 Press    =        77.7600 
Volume   =  19781886.5248 
---------------- Step     2950 ----- CPU =    438.9817 (sec) ----------------
TotEng   =  -1610432.9216 KinEng   =   1376724.1934 Temp     =       299.9545 
PotEng   =  -2987157.1151 E_bond   =    164956.7354 E_angle  =    705723.0006 
E_dihed  =    336969.4383 E_impro  =     14460.8886 E_vdwl   =   -132750.0671 
E_coul   =  13341696.7737 E_long   = -17418213.8847 Press    =       -22.7588 
Volume   =  19782785.3931 
---------------- Step     3000 ----- CPU =    446.4930 (sec) ----------------
TotEng   =  -1610494.5858 KinEng   =   1377707.4785 Temp     =       300.1687 
PotEng   =  -2988202.0642 E_bond   =    164946.6710 E_angle  =    705092.2060 
E_dihed  =    336546.9810 E_impro  =     14245.5235 E_vdwl   =   -132784.2043 
E_coul   =  13341979.0713 E_long   = -17418228.3128 Press    =       -43.2931 
Volume   =  19785452.2788 
---------------- Step     3050 ----- CPU =    454.0069 (sec) ----------------
TotEng   =  -1610374.7690 KinEng   =   1376630.3272 Temp     =       299.9340 
PotEng   =  -2987005.0962 E_bond   =    164899.5826 E_angle  =    705767.3022 
E_dihed  =    336602.3075 E_impro  =     14369.3664 E_vdwl   =   -133970.5688 
E_coul   =  13343559.8964 E_long   = -17418232.9825 Press    =       -47.2868 
Volume   =  19787469.0061 
---------------- Step     3100 ----- CPU =    461.3809 (sec) ----------------
TotEng   =  -1609563.0666 KinEng   =   1377715.2256 Temp     =       300.1704 
PotEng   =  -2987278.2922 E_bond   =    164347.7427 E_angle  =    705861.7364 
E_dihed  =    336333.0152 E_impro  =     14380.9720 E_vdwl   =   -132572.9094 
E_coul   =  13342501.1807 E_long   = -17418130.0300 Press    =        42.8803 
Volume   =  19788373.8734 
---------------- Step     3150 ----- CPU =    468.8926 (sec) ----------------
TotEng   =  -1608811.0729 KinEng   =   1376822.0419 Temp     =       299.9758 
PotEng   =  -2985633.1148 E_bond   =    164559.9932 E_angle  =    707565.1051 
E_dihed  =    336427.6528 E_impro  =     14362.6183 E_vdwl   =   -132947.0890 
E_coul   =  13342577.7138 E_long   = -17418179.1091 Press    =         1.9860 
Volume   =  19788940.4321 
---------------- Step     3200 ----- CPU =    476.2594 (sec) ----------------
TotEng   =  -1609400.2958 KinEng   =   1377438.1194 Temp     =       300.1100 
PotEng   =  -2986838.4152 E_bond   =    164670.2345 E_angle  =    705798.9857 
E_dihed  =    336983.3450 E_impro  =     14368.1542 E_vdwl   =   -133642.1833 
E_coul   =  13343157.6658 E_long   = -17418174.6172 Press    =       -49.1655 
Volume   =  19788508.2701 
---------------- Step     3250 ----- CPU =    483.7784 (sec) ----------------
TotEng   =  -1610400.0020 KinEng   =   1377506.1354 Temp     =       300.1249 
PotEng   =  -2987906.1373 E_bond   =    164672.4739 E_angle  =    705795.8301 
E_dihed  =    336590.1157 E_impro  =     14200.6462 E_vdwl   =   -132189.2100 
E_coul   =  13341241.8524 E_long   = -17418217.8456 Press    =        38.1250 
Volume   =  19787177.7073 
---------------- Step     3300 ----- CPU =    491.2906 (sec) ----------------
TotEng   =  -1611719.1565 KinEng   =   1376769.4681 Temp     =       299.9644 
PotEng   =  -2988488.6245 E_bond   =    164934.0212 E_angle  =    706487.7904 
E_dihed  =    336890.8967 E_impro  =     14185.3339 E_vdwl   =   -132886.9712 
E_coul   =  13340098.9576 E_long   = -17418198.6530 Press    =        -3.0084 
Volume   =  19785337.9841 
---------------- Step     3350 ----- CPU =    498.8157 (sec) ----------------
TotEng   =  -1612461.4498 KinEng   =   1377110.0523 Temp     =       300.0386 
PotEng   =  -2989571.5021 E_bond   =    164905.0425 E_angle  =    706289.9743 
E_dihed  =    336607.8612 E_impro  =     14338.3665 E_vdwl   =   -132532.8212 
E_coul   =  13339019.0422 E_long   = -17418198.9676 Press    =       -38.8733 
Volume   =  19783537.3984 
---------------- Step     3400 ----- CPU =    506.1845 (sec) ----------------
TotEng   =  -1612653.6106 KinEng   =   1376039.1489 Temp     =       299.8052 
PotEng   =  -2988692.7595 E_bond   =    164764.3583 E_angle  =    705741.9742 
E_dihed  =    336954.5712 E_impro  =     14344.6505 E_vdwl   =   -129800.2699 
E_coul   =  13337469.2173 E_long   = -17418167.2612 Press    =        22.2326 
Volume   =  19781678.3815 
---------------- Step     3450 ----- CPU =    513.7048 (sec) ----------------
TotEng   =  -1613249.4641 KinEng   =   1378448.6523 Temp     =       300.3302 
PotEng   =  -2991698.1165 E_bond   =    164900.1524 E_angle  =    705382.6948 
E_dihed  =    335976.6101 E_impro  =     14225.7319 E_vdwl   =   -131964.8684 
E_coul   =  13337952.4205 E_long   = -17418170.8576 Press    =         0.2894 
Volume   =  19781516.6643 
---------------- Step     3500 ----- CPU =    521.0766 (sec) ----------------
TotEng   =  -1613875.6233 KinEng   =   1375295.9672 Temp     =       299.6433 
PotEng   =  -2989171.5905 E_bond   =    165304.4030 E_angle  =    705960.7727 
E_dihed  =    336595.7937 E_impro  =     14341.3114 E_vdwl   =   -132467.3882 
E_coul   =  13339321.1220 E_long   = -17418227.6051 Press    =       -40.6962 
Volume   =  19782167.8615 
---------------- Step     3550 ----- CPU =    528.5974 (sec) ----------------
TotEng   =  -1612115.2490 KinEng   =   1377122.8408 Temp     =       300.0414 
PotEng   =  -2989238.0898 E_bond   =    164293.0837 E_angle  =    706882.3745 
E_dihed  =    336288.2478 E_impro  =     14387.4944 E_vdwl   =   -133021.5377 
E_coul   =  13340200.8559 E_long   = -17418268.6083 Press    =       -46.9737 
Volume   =  19783048.4844 
---------------- Step     3600 ----- CPU =    535.9677 (sec) ----------------
TotEng   =  -1609631.1778 KinEng   =   1377783.4424 Temp     =       300.1853 
PotEng   =  -2987414.6202 E_bond   =    164940.0097 E_angle  =    707420.7179 
E_dihed  =    336858.4928 E_impro  =     14344.7389 E_vdwl   =   -133310.8501 
E_coul   =  13340412.0424 E_long   = -17418079.7719 Press    =       -75.1641 
Volume   =  19784212.8782 
---------------- Step     3650 ----- CPU =    543.4962 (sec) ----------------
TotEng   =  -1608737.3273 KinEng   =   1378388.1259 Temp     =       300.3170 
PotEng   =  -2987125.4532 E_bond   =    165122.6805 E_angle  =    708027.4686 
E_dihed  =    336524.0701 E_impro  =     14404.7825 E_vdwl   =   -134179.6149 
E_coul   =  13341139.7382 E_long   = -17418164.5782 Press    =        -2.8113 
Volume   =  19784742.7801 
---------------- Step     3700 ----- CPU =    551.0108 (sec) ----------------
TotEng   =  -1610273.2159 KinEng   =   1377792.7481 Temp     =       300.1873 
PotEng   =  -2988065.9639 E_bond   =    165230.2105 E_angle  =    706954.1194 
E_dihed  =    336434.2323 E_impro  =     14379.1234 E_vdwl   =   -134280.9851 
E_coul   =  13341287.0116 E_long   = -17418069.6760 Press    =       -25.8445 
Volume   =  19784852.3275 
---------------- Step     3750 ----- CPU =    558.5284 (sec) ----------------
TotEng   =  -1611745.0681 KinEng   =   1377034.2811 Temp     =       300.0221 
PotEng   =  -2988779.3493 E_bond   =    165248.9179 E_angle  =    706724.1022 
E_dihed  =    336235.9635 E_impro  =     14332.0320 E_vdwl   =   -133151.7138 
E_coul   =  13340067.8905 E_long   = -17418236.5415 Press    =       -61.6835 
Volume   =  19784541.4979 
---------------- Step     3800 ----- CPU =    565.8936 (sec) ----------------
TotEng   =  -1612817.1624 KinEng   =   1375634.7676 Temp     =       299.7171 
PotEng   =  -2988451.9300 E_bond   =    165074.9035 E_angle  =    707174.3343 
E_dihed  =    336431.3120 E_impro  =     14268.1811 E_vdwl   =   -131905.6259 
E_coul   =  13338610.9871 E_long   = -17418106.0220 Press    =       -10.5179 
Volume   =  19784041.2885 
---------------- Step     3850 ----- CPU =    573.4120 (sec) ----------------
TotEng   =  -1612896.1076 KinEng   =   1375757.4401 Temp     =       299.7439 
PotEng   =  -2988653.5478 E_bond   =    165158.8007 E_angle  =    706992.2962 
E_dihed  =    336777.3488 E_impro  =     14420.3087 E_vdwl   =   -133613.8326 
E_coul   =  13339654.4084 E_long   = -17418042.8779 Press    =       -68.6237 
Volume   =  19783847.1502 
---------------- Step     3900 ----- CPU =    580.9261 (sec) ----------------
TotEng   =  -1612015.7773 KinEng   =   1378592.6605 Temp     =       300.3616 
PotEng   =  -2990608.4378 E_bond   =    164928.2069 E_angle  =    705666.2760 
E_dihed  =    336573.3603 E_impro  =     14373.9509 E_vdwl   =   -132295.1855 
E_coul   =  13338232.0786 E_long   = -17418087.1250 Press    =       -16.7973 
Volume   =  19782415.6160 
---------------- Step     3950 ----- CPU =    588.2843 (sec) ----------------
TotEng   =  -1611623.8522 KinEng   =   1377108.4160 Temp     =       300.0382 
PotEng   =  -2988732.2682 E_bond   =    165028.8730 E_angle  =    707507.2495 
E_dihed  =    336682.4703 E_impro  =     14236.9917 E_vdwl   =   -130029.5739 
E_coul   =  13336065.6208 E_long   = -17418223.8997 Press    =        15.3682 
Volume   =  19780536.4889 
---------------- Step     4000 ----- CPU =    595.7940 (sec) ----------------
TotEng   =  -1612453.1863 KinEng   =   1375904.4334 Temp     =       299.7759 
PotEng   =  -2988357.6197 E_bond   =    164913.0409 E_angle  =    707814.0519 
E_dihed  =    336898.9690 E_impro  =     14339.2125 E_vdwl   =   -132956.4659 
E_coul   =  13338848.1001 E_long   = -17418214.5282 Press    =       -37.5733 
Volume   =  19778974.4573 
---------------- Step     4050 ----- CPU =    603.3097 (sec) ----------------
TotEng   =  -1613095.2592 KinEng   =   1377074.9912 Temp     =       300.0309 
PotEng   =  -2990170.2504 E_bond   =    164271.4882 E_angle  =    706889.9890 
E_dihed  =    337080.6853 E_impro  =     14462.2918 E_vdwl   =   -132498.4412 
E_coul   =  13337886.6578 E_long   = -17418262.9212 Press    =         8.0912 
Volume   =  19777185.5754 
---------------- Step     4100 ----- CPU =    610.8219 (sec) ----------------
TotEng   =  -1613644.5556 KinEng   =   1377465.5976 Temp     =       300.1160 
PotEng   =  -2991110.1532 E_bond   =    164709.9272 E_angle  =    706323.3858 
E_dihed  =    336759.2528 E_impro  =     14389.4497 E_vdwl   =   -131509.8452 
E_coul   =  13336399.6276 E_long   = -17418181.9510 Press    =        42.6610 
Volume   =  19775456.9945 
---------------- Step     4150 ----- CPU =    618.1866 (sec) ----------------
TotEng   =  -1613618.6154 KinEng   =   1375560.2199 Temp     =       299.7009 
PotEng   =  -2989178.8354 E_bond   =    165276.7773 E_angle  =    706840.5650 
E_dihed  =    337153.4172 E_impro  =     14337.4142 E_vdwl   =   -131348.6979 
E_coul   =  13336812.6328 E_long   = -17418250.9439 Press    =       -41.9585 
Volume   =  19774999.3330 
---------------- Step     4200 ----- CPU =    625.7065 (sec) ----------------
TotEng   =  -1612883.6620 KinEng   =   1376863.7578 Temp     =       299.9849 
PotEng   =  -2989747.4199 E_bond   =    165389.0060 E_angle  =    707495.7016 
E_dihed  =    336656.0624 E_impro  =     14361.7132 E_vdwl   =   -130631.1264 
E_coul   =  13335104.5134 E_long   = -17418123.2901 Press    =        -5.1430 
Volume   =  19775251.2626 
---------------- Step     4250 ----- CPU =    633.2230 (sec) ----------------
TotEng   =  -1612117.5118 KinEng   =   1378097.6594 Temp     =       300.2537 
PotEng   =  -2990215.1712 E_bond   =    164541.2531 E_angle  =    707558.8249 
E_dihed  =    336789.0514 E_impro  =     14458.4743 E_vdwl   =   -131439.5857 
E_coul   =  13335969.0643 E_long   = -17418092.2536 Press    =        46.5350 
Volume   =  19777366.4285 
---------------- Step     4300 ----- CPU =    640.5883 (sec) ----------------
TotEng   =  -1611458.5999 KinEng   =   1376964.2217 Temp     =       300.0068 
PotEng   =  -2988422.8216 E_bond   =    165015.8572 E_angle  =    708554.6635 
E_dihed  =    336649.7610 E_impro  =     14425.5929 E_vdwl   =   -132830.6567 
E_coul   =  13337952.5488 E_long   = -17418190.5883 Press    =        -3.8789 
Volume   =  19778568.8822 
---------------- Step     4350 ----- CPU =    648.1079 (sec) ----------------
TotEng   =  -1611793.6886 KinEng   =   1378286.2318 Temp     =       300.2948 
PotEng   =  -2990079.9204 E_bond   =    165129.5423 E_angle  =    707589.5355 
E_dihed  =    336862.1677 E_impro  =     14353.9902 E_vdwl   =   -132774.7423 
E_coul   =  13336944.2619 E_long   = -17418184.6758 Press    =       -33.3358 
Volume   =  19779482.7937 
---------------- Step     4400 ----- CPU =    655.6179 (sec) ----------------
TotEng   =  -1613212.6073 KinEng   =   1377129.0533 Temp     =       300.0427 
PotEng   =  -2990341.6607 E_bond   =    165129.6017 E_angle  =    707850.9648 
E_dihed  =    336849.8084 E_impro  =     14350.2255 E_vdwl   =   -132247.5978 
E_coul   =  13335946.2323 E_long   = -17418220.8955 Press    =       -38.1730 
Volume   =  19779648.5689 
---------------- Step     4450 ----- CPU =    663.1399 (sec) ----------------
TotEng   =  -1614622.4359 KinEng   =   1376117.9300 Temp     =       299.8224 
PotEng   =  -2990740.3659 E_bond   =    164513.8824 E_angle  =    708512.7148 
E_dihed  =    336673.1817 E_impro  =     14321.3158 E_vdwl   =   -132928.8112 
E_coul   =  13336318.5433 E_long   = -17418151.1926 Press    =         1.5996 
Volume   =  19778209.8662 
---------------- Step     4500 ----- CPU =    670.6545 (sec) ----------------
TotEng   =  -1614974.1572 KinEng   =   1377230.8146 Temp     =       300.0649 
PotEng   =  -2992204.9718 E_bond   =    165258.9185 E_angle  =    706882.5932 
E_dihed  =    336862.7773 E_impro  =     14368.1829 E_vdwl   =   -132058.2711 
E_coul   =  13334744.5045 E_long   = -17418263.6772 Press    =       -55.7956 
Volume   =  19773579.7665 
---------------- Step     4550 ----- CPU =    678.0175 (sec) ----------------
TotEng   =  -1614713.0189 KinEng   =   1377742.0575 Temp     =       300.1763 
PotEng   =  -2992455.0764 E_bond   =    165133.3706 E_angle  =    706424.1824 
E_dihed  =    336757.7483 E_impro  =     14265.0512 E_vdwl   =   -130146.9604 
E_coul   =  13333222.2512 E_long   = -17418110.7198 Press    =        13.6227 
Volume   =  19768824.0648 
---------------- Step     4600 ----- CPU =    685.5348 (sec) ----------------
TotEng   =  -1614784.3356 KinEng   =   1377143.1536 Temp     =       300.0458 
PotEng   =  -2991927.4893 E_bond   =    165041.7576 E_angle  =    707519.8825 
E_dihed  =    336974.6257 E_impro  =     14420.9785 E_vdwl   =   -130795.5718 
E_coul   =  13333146.4227 E_long   = -17418235.5844 Press    =        40.7050 
Volume   =  19765516.1845 
---------------- Step     4650 ----- CPU =    693.0490 (sec) ----------------
TotEng   =  -1615896.6586 KinEng   =   1376685.8812 Temp     =       299.9462 
PotEng   =  -2992582.5398 E_bond   =    165429.2776 E_angle  =    707306.9537 
E_dihed  =    336642.9673 E_impro  =     14369.7409 E_vdwl   =   -131975.1877 
E_coul   =  13333953.6083 E_long   = -17418309.8999 Press    =       -28.8334 
Volume   =  19764440.6497 
---------------- Step     4700 ----- CPU =    700.5710 (sec) ----------------
TotEng   =  -1616410.3255 KinEng   =   1377005.7689 Temp     =       300.0158 
PotEng   =  -2993416.0944 E_bond   =    164533.3392 E_angle  =    707517.6768 
E_dihed  =    337009.6808 E_impro  =     14257.5031 E_vdwl   =   -131542.2789 
E_coul   =  13332950.2105 E_long   = -17418142.2258 Press    =         2.0611 
Volume   =  19763882.6077 
---------------- Step     4750 ----- CPU =    708.0883 (sec) ----------------
TotEng   =  -1615815.6867 KinEng   =   1376500.8910 Temp     =       299.9058 
PotEng   =  -2992316.5777 E_bond   =    165928.6043 E_angle  =    707176.8584 
E_dihed  =    336503.5397 E_impro  =     14481.8941 E_vdwl   =   -133293.4755 
E_coul   =  13335037.5118 E_long   = -17418151.5104 Press    =       -66.9986 
Volume   =  19763345.8646 
---------------- Step     4800 ----- CPU =    715.6050 (sec) ----------------
TotEng   =  -1614645.9684 KinEng   =   1376861.0244 Temp     =       299.9843 
PotEng   =  -2991506.9927 E_bond   =    165768.6823 E_angle  =    706521.1107 
E_dihed  =    336753.8667 E_impro  =     14426.6467 E_vdwl   =   -132300.3402 
E_coul   =  13335541.3324 E_long   = -17418218.2913 Press    =        10.7268 
Volume   =  19761628.7659 
---------------- Step     4850 ----- CPU =    723.1221 (sec) ----------------
TotEng   =  -1613910.5514 KinEng   =   1377274.5898 Temp     =       300.0744 
PotEng   =  -2991185.1412 E_bond   =    164923.4528 E_angle  =    707936.4824 
E_dihed  =    336710.5617 E_impro  =     14417.7192 E_vdwl   =   -132901.1639 
E_coul   =  13335878.2172 E_long   = -17418150.4106 Press    =       -15.0401 
Volume   =  19760275.2048 
---------------- Step     4900 ----- CPU =    730.6317 (sec) ----------------
TotEng   =  -1613632.8315 KinEng   =   1377643.0678 Temp     =       300.1547 
PotEng   =  -2991275.8993 E_bond   =    164798.3513 E_angle  =    707508.8041 
E_dihed  =    337001.5678 E_impro  =     14482.3733 E_vdwl   =   -133235.0097 
E_coul   =  13336403.4366 E_long   = -17418235.4227 Press    =       -27.1982 
Volume   =  19759637.1233 
---------------- Step     4950 ----- CPU =    738.1503 (sec) ----------------
TotEng   =  -1613721.5544 KinEng   =   1377606.9086 Temp     =       300.1468 
PotEng   =  -2991328.4631 E_bond   =    165498.4060 E_angle  =    707221.4164 
E_dihed  =    337018.4689 E_impro  =     14362.0546 E_vdwl   =   -131964.1343 
E_coul   =  13334692.8612 E_long   = -17418157.5360 Press    =        15.7567 
Volume   =  19759594.2903 
---------------- Step     5000 ----- CPU =    745.5104 (sec) ----------------
TotEng   =  -1614929.4775 KinEng   =   1376524.4224 Temp     =       299.9110 
PotEng   =  -2991453.8999 E_bond   =    165380.2786 E_angle  =    707988.4306 
E_dihed  =    336595.0194 E_impro  =     14410.7351 E_vdwl   =   -131341.1214 
E_coul   =  13333708.4835 E_long   = -17418195.7256 Press    =       -14.2284 
Volume   =  19759603.2401 
---------------- Step     5050 ----- CPU =    753.0160 (sec) ----------------
TotEng   =  -1615914.2077 KinEng   =   1376470.4310 Temp     =       299.8992 
PotEng   =  -2992384.6387 E_bond   =    165121.3089 E_angle  =    707982.9568 
E_dihed  =    336357.4374 E_impro  =     14330.7400 E_vdwl   =   -131977.8176 
E_coul   =  13333996.6543 E_long   = -17418195.9185 Press    =       -23.9054 
Volume   =  19759499.0212 
---------------- Step     5100 ----- CPU =    760.5284 (sec) ----------------
TotEng   =  -1615844.8827 KinEng   =   1376985.1153 Temp     =       300.0113 
PotEng   =  -2992829.9980 E_bond   =    165501.6117 E_angle  =    707811.9430 
E_dihed  =    336801.4906 E_impro  =     14282.0251 E_vdwl   =   -132498.6599 
E_coul   =  13333601.5052 E_long   = -17418329.9138 Press    =       -40.4566 
Volume   =  19759920.7817 
---------------- Step     5150 ----- CPU =    767.8925 (sec) ----------------
TotEng   =  -1615579.1052 KinEng   =   1377623.5440 Temp     =       300.1504 
PotEng   =  -2993202.6492 E_bond   =    165172.9103 E_angle  =    707429.0602 
E_dihed  =    337351.2815 E_impro  =     14228.2117 E_vdwl   =   -132320.5577 
E_coul   =  13333150.0380 E_long   = -17418213.5932 Press    =         8.4698 
Volume   =  19760156.3880 
---------------- Step     5200 ----- CPU =    775.4019 (sec) ----------------
TotEng   =  -1615331.7782 KinEng   =   1377873.5986 Temp     =       300.2049 
PotEng   =  -2993205.3768 E_bond   =    165216.5762 E_angle  =    707510.8247 
E_dihed  =    336767.7912 E_impro  =     14362.4721 E_vdwl   =   -132244.5732 
E_coul   =  13333360.1630 E_long   = -17418178.6307 Press    =       -33.7667 
Volume   =  19761029.5567 
---------------- Step     5250 ----- CPU =    782.9164 (sec) ----------------
TotEng   =  -1615264.1552 KinEng   =   1376423.2983 Temp     =       299.8889 
PotEng   =  -2991687.4535 E_bond   =    165272.7639 E_angle  =    708389.6025 
E_dihed  =    337372.5343 E_impro  =     14354.7518 E_vdwl   =   -132170.6607 
E_coul   =  13333322.2553 E_long   = -17418228.7006 Press    =       -24.8708 
Volume   =  19761751.2140 
---------------- Step     5300 ----- CPU =    790.4262 (sec) ----------------
TotEng   =  -1615135.0416 KinEng   =   1378169.4536 Temp     =       300.2694 
PotEng   =  -2993304.4952 E_bond   =    165220.3906 E_angle  =    707710.6084 
E_dihed  =    336933.3889 E_impro  =     14408.8287 E_vdwl   =   -132392.4670 
E_coul   =  13333017.8196 E_long   = -17418203.0643 Press    =        -8.6552 
Volume   =  19762730.1414 
---------------- Step     5350 ----- CPU =    797.9446 (sec) ----------------
TotEng   =  -1614888.4024 KinEng   =   1377285.9466 Temp     =       300.0769 
PotEng   =  -2992174.3490 E_bond   =    165323.0943 E_angle  =    707785.3395 
E_dihed  =    336839.0587 E_impro  =     14390.5215 E_vdwl   =   -132581.6208 
E_coul   =  13334218.3210 E_long   = -17418149.0632 Press    =         8.4048 
Volume   =  19763150.5593 
---------------- Step     5400 ----- CPU =    805.3050 (sec) ----------------
TotEng   =  -1614506.3779 KinEng   =   1375322.8389 Temp     =       299.6492 
PotEng   =  -2989829.2168 E_bond   =    165815.3592 E_angle  =    708616.7839 
E_dihed  =    336911.4599 E_impro  =     14432.7126 E_vdwl   =   -132076.7523 
E_coul   =  13334597.7711 E_long   = -17418126.5512 Press    =       -23.2156 
Volume   =  19763474.0545 
---------------- Step     5450 ----- CPU =    812.8060 (sec) ----------------
TotEng   =  -1612900.1536 KinEng   =   1376863.4427 Temp     =       299.9848 
PotEng   =  -2989763.5962 E_bond   =    165210.7027 E_angle  =    710004.7832 
E_dihed  =    337341.8314 E_impro  =     14329.5842 E_vdwl   =   -132017.4326 
E_coul   =  13333528.6958 E_long   = -17418161.7610 Press    =        -4.5766 
Volume   =  19763569.1754 
---------------- Step     5500 ----- CPU =    820.3217 (sec) ----------------
TotEng   =  -1612637.9455 KinEng   =   1377391.7733 Temp     =       300.0999 
PotEng   =  -2990029.7188 E_bond   =    165697.0447 E_angle  =    708765.0660 
E_dihed  =    337323.1696 E_impro  =     14341.3577 E_vdwl   =   -130981.1751 
E_coul   =  13332967.4917 E_long   = -17418142.6734 Press    =         4.6294 
Volume   =  19764700.7855 
---------------- Step     5550 ----- CPU =    827.8381 (sec) ----------------
TotEng   =  -1614211.0320 KinEng   =   1376705.9058 Temp     =       299.9505 
PotEng   =  -2990916.9379 E_bond   =    165836.7638 E_angle  =    709427.8454 
E_dihed  =    337022.1891 E_impro  =     14414.6602 E_vdwl   =   -132906.2745 
E_coul   =  13333522.6790 E_long   = -17418234.8008 Press    =       -36.9362 
Volume   =  19766084.3102 
---------------- Step     5600 ----- CPU =    835.2013 (sec) ----------------
TotEng   =  -1616641.7221 KinEng   =   1376305.1411 Temp     =       299.8632 
PotEng   =  -2992946.8632 E_bond   =    165405.2173 E_angle  =    707391.3799 
E_dihed  =    336616.7055 E_impro  =     14227.8930 E_vdwl   =   -130878.8609 
E_coul   =  13332568.5201 E_long   = -17418277.7180 Press    =        -3.2964 
Volume   =  19765460.9724 
---------------- Step     5650 ----- CPU =    842.7184 (sec) ----------------
TotEng   =  -1617154.8102 KinEng   =   1376722.9402 Temp     =       299.9542 
PotEng   =  -2993877.7503 E_bond   =    164908.8879 E_angle  =    708209.1788 
E_dihed  =    336701.7826 E_impro  =     14481.9922 E_vdwl   =   -133196.3747 
E_coul   =  13333314.0168 E_long   = -17418297.2339 Press    =        -1.9280 
Volume   =  19763606.1042 
---------------- Step     5700 ----- CPU =    850.2358 (sec) ----------------
TotEng   =  -1615823.0406 KinEng   =   1377407.9906 Temp     =       300.1035 
PotEng   =  -2993231.0312 E_bond   =    165314.8116 E_angle  =    707735.9839 
E_dihed  =    337009.6171 E_impro  =     14506.5678 E_vdwl   =   -132577.2211 
E_coul   =  13333076.5548 E_long   = -17418297.3452 Press    =         7.4988 
Volume   =  19760815.7970 
---------------- Step     5750 ----- CPU =    857.6022 (sec) ----------------
TotEng   =  -1613986.1793 KinEng   =   1377153.0423 Temp     =       300.0479 
PotEng   =  -2991139.2215 E_bond   =    165961.1479 E_angle  =    708875.5951 
E_dihed  =    337258.6437 E_impro  =     14367.4637 E_vdwl   =   -132534.0873 
E_coul   =  13333092.0337 E_long   = -17418160.0183 Press    =       -19.0682 
Volume   =  19757753.1230 
---------------- Step     5800 ----- CPU =    865.1203 (sec) ----------------
TotEng   =  -1613262.2016 KinEng   =   1377138.9606 Temp     =       300.0449 
PotEng   =  -2990401.1622 E_bond   =    165728.2264 E_angle  =    708854.8668 
E_dihed  =    337318.8089 E_impro  =     14544.5137 E_vdwl   =   -131962.8364 
E_coul   =  13333355.6942 E_long   = -17418240.4359 Press    =       -34.5565 
Volume   =  19755629.0808 
---------------- Step     5850 ----- CPU =    872.4845 (sec) ----------------
TotEng   =  -1614096.2366 KinEng   =   1377627.7520 Temp     =       300.1514 
PotEng   =  -2991723.9886 E_bond   =    165658.1418 E_angle  =    709662.1984 
E_dihed  =    336916.8711 E_impro  =     14452.9522 E_vdwl   =   -132082.2517 
E_coul   =  13331800.6702 E_long   = -17418132.5706 Press    =         3.4516 
Volume   =  19753883.5443 
---------------- Step     5900 ----- CPU =    880.0008 (sec) ----------------
TotEng   =  -1616326.7932 KinEng   =   1376657.8428 Temp     =       299.9400 
PotEng   =  -2992984.6361 E_bond   =    165422.3866 E_angle  =    709086.1349 
E_dihed  =    337249.7505 E_impro  =     14447.0050 E_vdwl   =   -133092.9155 
E_coul   =  13332143.1605 E_long   = -17418240.1579 Press    =       -25.4675 
Volume   =  19753340.3944 
---------------- Step     5950 ----- CPU =    887.5109 (sec) ----------------
TotEng   =  -1617495.9501 KinEng   =   1376607.0958 Temp     =       299.9290 
PotEng   =  -2994103.0460 E_bond   =    165626.6740 E_angle  =    707709.3935 
E_dihed  =    337347.3829 E_impro  =     14278.7289 E_vdwl   =   -131712.0578 
E_coul   =  13330960.1731 E_long   = -17418313.3405 Press    =       -45.3620 
Volume   =  19752525.3315 
---------------- Step     6000 ----- CPU =    895.0281 (sec) ----------------
TotEng   =  -1617051.2815 KinEng   =   1377077.8137 Temp     =       300.0315 
PotEng   =  -2994129.0951 E_bond   =    165529.4681 E_angle  =    708675.0800 
E_dihed  =    336755.1484 E_impro  =     14346.3041 E_vdwl   =   -132141.9270 
E_coul   =  13330937.0504 E_long   = -17418230.2191 Press    =       -22.5457 
Volume   =  19751807.9995 
---------------- Step     6050 ----- CPU =    902.3921 (sec) ----------------
TotEng   =  -1615379.6391 KinEng   =   1375941.8001 Temp     =       299.7840 
PotEng   =  -2991321.4392 E_bond   =    165799.1583 E_angle  =    709780.9559 
E_dihed  =    336773.8475 E_impro  =     14379.5672 E_vdwl   =   -132895.8214 
E_coul   =  13333097.3224 E_long   = -17418256.4691 Press    =       -27.2400 
Volume   =  19751995.5260 
---------------- Step     6100 ----- CPU =    909.9068 (sec) ----------------
TotEng   =  -1613440.2961 KinEng   =   1378209.6443 Temp     =       300.2781 
PotEng   =  -2991649.9404 E_bond   =    165775.9520 E_angle  =    709372.4477 
E_dihed  =    337154.8350 E_impro  =     14473.1059 E_vdwl   =   -132337.2713 
E_coul   =  13332185.0916 E_long   = -17418274.1012 Press    =         2.0607 
Volume   =  19752284.4941 
---------------- Step     6150 ----- CPU =    917.4175 (sec) ----------------
TotEng   =  -1613229.4494 KinEng   =   1377782.1731 Temp     =       300.1850 
PotEng   =  -2991011.6225 E_bond   =    166306.0883 E_angle  =    709674.3917 
E_dihed  =    336828.4371 E_impro  =     14406.7025 E_vdwl   =   -132126.5797 
E_coul   =  13332075.6412 E_long   = -17418176.3038 Press    =       -14.1337 
Volume   =  19752067.9075 
---------------- Step     6200 ----- CPU =    924.7818 (sec) ----------------
TotEng   =  -1615424.9248 KinEng   =   1378045.8466 Temp     =       300.2425 
PotEng   =  -2993470.7713 E_bond   =    165533.8933 E_angle  =    708679.8606 
E_dihed  =    337177.5117 E_impro  =     14400.5333 E_vdwl   =   -132730.7581 
E_coul   =  13331739.7933 E_long   = -17418271.6054 Press    =       -18.3961 
Volume   =  19752796.7517 
---------------- Step     6250 ----- CPU =    932.2937 (sec) ----------------
TotEng   =  -1618187.9440 KinEng   =   1376311.6028 Temp     =       299.8646 
PotEng   =  -2994499.5468 E_bond   =    165975.5761 E_angle  =    708358.2683 
E_dihed  =    336467.0604 E_impro  =     14360.1845 E_vdwl   =   -131327.2041 
E_coul   =  13329863.9653 E_long   = -17418197.3973 Press    =       -52.3821 
Volume   =  19753602.5957 
---------------- Step     6300 ----- CPU =    939.6568 (sec) ----------------
TotEng   =  -1618681.1764 KinEng   =   1376485.2637 Temp     =       299.9024 
PotEng   =  -2995166.4402 E_bond   =    165098.1655 E_angle  =    708873.8105 
E_dihed  =    336691.1360 E_impro  =     14420.4687 E_vdwl   =   -131311.2917 
E_coul   =  13329339.6453 E_long   = -17418278.3744 Press    =       -32.1098 
Volume   =  19754191.5466 
---------------- Step     6350 ----- CPU =    947.1679 (sec) ----------------
TotEng   =  -1617044.0738 KinEng   =   1376450.7390 Temp     =       299.8949 
PotEng   =  -2993494.8128 E_bond   =    166186.8341 E_angle  =    709019.3950 
E_dihed  =    336597.5810 E_impro  =     14512.0240 E_vdwl   =   -130582.5744 
E_coul   =  13329081.1609 E_long   = -17418309.2334 Press    =        -1.3019 
Volume   =  19754274.8484 
---------------- Step     6400 ----- CPU =    954.6778 (sec) ----------------
TotEng   =  -1615369.9845 KinEng   =   1378935.6763 Temp     =       300.4363 
PotEng   =  -2994305.6608 E_bond   =    165670.7685 E_angle  =    708768.1925 
E_dihed  =    336732.7366 E_impro  =     14341.6402 E_vdwl   =   -132337.1875 
E_coul   =  13330834.5572 E_long   = -17418316.3682 Press    =       -19.9666 
Volume   =  19754904.8765 
---------------- Step     6450 ----- CPU =    962.0447 (sec) ----------------
TotEng   =  -1615788.3548 KinEng   =   1376838.3799 Temp     =       299.9794 
PotEng   =  -2992626.7348 E_bond   =    165552.9594 E_angle  =    710241.4057 
E_dihed  =    336520.3669 E_impro  =     14400.4572 E_vdwl   =   -131463.7128 
E_coul   =  13330519.3892 E_long   = -17418397.6004 Press    =       -15.1924 
Volume   =  19755486.8859 
---------------- Step     6500 ----- CPU =    969.5581 (sec) ----------------
TotEng   =  -1617328.8607 KinEng   =   1376507.8856 Temp     =       299.9074 
PotEng   =  -2993836.7463 E_bond   =    166196.8317 E_angle  =    708625.0232 
E_dihed  =    336843.5962 E_impro  =     14399.8084 E_vdwl   =   -132232.5644 
E_coul   =  13330639.9799 E_long   = -17418309.4212 Press    =       -57.8694 
Volume   =  19755721.8266 
---------------- Step     6550 ----- CPU =    976.9179 (sec) ----------------
TotEng   =  -1618224.3416 KinEng   =   1376922.6459 Temp     =       299.9977 
PotEng   =  -2995146.9875 E_bond   =    165422.4850 E_angle  =    708880.6956 
E_dihed  =    337083.6853 E_impro  =     14516.8809 E_vdwl   =   -131821.4419 
E_coul   =  13329145.7526 E_long   = -17418375.0450 Press    =         3.9090 
Volume   =  19755227.8454 
---------------- Step     6600 ----- CPU =    984.4265 (sec) ----------------
TotEng   =  -1617861.4208 KinEng   =   1377917.1087 Temp     =       300.2144 
PotEng   =  -2995778.5295 E_bond   =    165639.5319 E_angle  =    708744.9502 
E_dihed  =    336837.5704 E_impro  =     14283.0946 E_vdwl   =   -131506.7416 
E_coul   =  13328631.7500 E_long   = -17418408.6850 Press    =       -31.4599 
Volume   =  19753003.4381 
---------------- Step     6650 ----- CPU =    991.9398 (sec) ----------------
TotEng   =  -1617096.4426 KinEng   =   1377294.9159 Temp     =       300.0788 
PotEng   =  -2994391.3584 E_bond   =    165986.2751 E_angle  =    708992.1253 
E_dihed  =    337010.6786 E_impro  =     14251.4289 E_vdwl   =   -130963.6934 
E_coul   =  13328582.5140 E_long   = -17418250.6870 Press    =         9.9947 
Volume   =  19750410.6098 
---------------- Step     6700 ----- CPU =    999.2995 (sec) ----------------
TotEng   =  -1616450.3414 KinEng   =   1377738.3067 Temp     =       300.1754 
PotEng   =  -2994188.6481 E_bond   =    165415.0603 E_angle  =    708887.8880 
E_dihed  =    336790.3360 E_impro  =     14511.8360 E_vdwl   =   -130929.7980 
E_coul   =  13329456.2805 E_long   = -17418320.2508 Press    =        63.8279 
Volume   =  19748371.2716 
---------------- Step     6750 ----- CPU =   1006.8229 (sec) ----------------
TotEng   =  -1616656.5744 KinEng   =   1377318.3495 Temp     =       300.0839 
PotEng   =  -2993974.9239 E_bond   =    165649.3453 E_angle  =    708859.7971 
E_dihed  =    337709.5880 E_impro  =     14422.3538 E_vdwl   =   -131274.3287 
E_coul   =  13329061.2248 E_long   = -17418402.9042 Press    =        29.2880 
Volume   =  19747345.3060 
---------------- Step     6800 ----- CPU =   1014.3426 (sec) ----------------
TotEng   =  -1618107.7569 KinEng   =   1377788.5085 Temp     =       300.1864 
PotEng   =  -2995896.2655 E_bond   =    165654.5174 E_angle  =    709607.8233 
E_dihed  =    336719.5139 E_impro  =     14301.0639 E_vdwl   =   -132152.5643 
E_coul   =  13328393.2503 E_long   = -17418419.8700 Press    =        -8.5251 
Volume   =  19746515.8688 
---------------- Step     6850 ----- CPU =   1021.8591 (sec) ----------------
TotEng   =  -1619583.4478 KinEng   =   1375112.3793 Temp     =       299.6033 
PotEng   =  -2994695.8271 E_bond   =    166044.9219 E_angle  =    709327.3879 
E_dihed  =    337237.0758 E_impro  =     14395.8357 E_vdwl   =   -132506.2647 
E_coul   =  13329071.6778 E_long   = -17418266.4615 Press    =       -57.9396 
Volume   =  19745774.5085 
---------------- Step     6900 ----- CPU =   1029.2259 (sec) ----------------
TotEng   =  -1619141.0206 KinEng   =   1375965.3873 Temp     =       299.7892 
PotEng   =  -2995106.4079 E_bond   =    166240.0775 E_angle  =    709639.4533 
E_dihed  =    337041.9878 E_impro  =     14444.4293 E_vdwl   =   -131105.4238 
E_coul   =  13326989.2033 E_long   = -17418356.1353 Press    =       -25.4249 
Volume   =  19746252.8070 
---------------- Step     6950 ----- CPU =   1036.5990 (sec) ----------------
TotEng   =  -1617494.1947 KinEng   =   1377457.8015 Temp     =       300.1143 
PotEng   =  -2994951.9962 E_bond   =    165315.9795 E_angle  =    709526.9543 
E_dihed  =    337047.7804 E_impro  =     14429.9109 E_vdwl   =   -131817.2126 
E_coul   =  13328870.0001 E_long   = -17418325.4088 Press    =        13.9276 
Volume   =  19747117.5941 
---------------- Step     7000 ----- CPU =   1044.1317 (sec) ----------------
TotEng   =  -1616158.3516 KinEng   =   1378192.6697 Temp     =       300.2744 
PotEng   =  -2994351.0213 E_bond   =    166051.0427 E_angle  =    710023.9702 
E_dihed  =    336780.9029 E_impro  =     14352.0302 E_vdwl   =   -132516.5101 
E_coul   =  13329196.6335 E_long   = -17418239.0907 Press    =       -74.7029 
Volume   =  19748043.7864 
---------------- Step     7050 ----- CPU =   1051.4890 (sec) ----------------
TotEng   =  -1617007.2395 KinEng   =   1377774.9146 Temp     =       300.1834 
PotEng   =  -2994782.1542 E_bond   =    165924.9781 E_angle  =    709485.7709 
E_dihed  =    336726.5137 E_impro  =     14430.5743 E_vdwl   =   -132863.4007 
E_coul   =  13329859.1886 E_long   = -17418345.7792 Press    =       -31.4722 
Volume   =  19747755.8065 
---------------- Step     7100 ----- CPU =   1059.0148 (sec) ----------------
TotEng   =  -1618035.1019 KinEng   =   1377619.7153 Temp     =       300.1496 
PotEng   =  -2995654.8172 E_bond   =    166150.0356 E_angle  =    709812.8078 
E_dihed  =    336526.7012 E_impro  =     14541.8193 E_vdwl   =   -133800.4995 
E_coul   =  13329453.9927 E_long   = -17418339.6743 Press    =       -46.1945 
Volume   =  19746839.8744 
---------------- Step     7150 ----- CPU =   1066.5394 (sec) ----------------
TotEng   =  -1618624.6785 KinEng   =   1376538.0776 Temp     =       299.9139 
PotEng   =  -2995162.7561 E_bond   =    166313.0780 E_angle  =    709310.4710 
E_dihed  =    336376.0499 E_impro  =     14410.2545 E_vdwl   =   -131778.2235 
E_coul   =  13328609.2320 E_long   = -17418403.6179 Press    =       -44.0019 
Volume   =  19745014.9509 
---------------- Step     7200 ----- CPU =   1074.0705 (sec) ----------------
TotEng   =  -1618682.1493 KinEng   =   1376981.8493 Temp     =       300.0106 
PotEng   =  -2995663.9986 E_bond   =    166349.0849 E_angle  =    708793.4193 
E_dihed  =    336841.3297 E_impro  =     14350.6359 E_vdwl   =   -131346.8145 
E_coul   =  13327650.5878 E_long   = -17418302.2417 Press    =       -14.3356 
Volume   =  19743029.7925 
---------------- Step     7250 ----- CPU =   1081.4504 (sec) ----------------
TotEng   =  -1618536.6885 KinEng   =   1377606.2324 Temp     =       300.1467 
PotEng   =  -2996142.9209 E_bond   =    166288.8648 E_angle  =    710244.4715 
E_dihed  =    336699.6611 E_impro  =     14404.0615 E_vdwl   =   -132140.4455 
E_coul   =  13326771.6639 E_long   = -17418411.1981 Press    =       -55.8246 
Volume   =  19741361.1718 
---------------- Step     7300 ----- CPU =   1088.9726 (sec) ----------------
TotEng   =  -1618395.4256 KinEng   =   1376643.4574 Temp     =       299.9369 
PotEng   =  -2995038.8830 E_bond   =    165972.8602 E_angle  =    710488.6853 
E_dihed  =    336739.2344 E_impro  =     14496.2012 E_vdwl   =   -130260.7603 
E_coul   =  13325915.4022 E_long   = -17418390.5061 Press    =        15.8780 
Volume   =  19740402.4152 
---------------- Step     7350 ----- CPU =   1096.3351 (sec) ----------------
TotEng   =  -1618521.6394 KinEng   =   1377035.7035 Temp     =       300.0224 
PotEng   =  -2995557.3429 E_bond   =    165659.4619 E_angle  =    709195.9840 
E_dihed  =    337133.0719 E_impro  =     14166.7603 E_vdwl   =   -132042.2573 
E_coul   =  13328806.7306 E_long   = -17418477.0943 Press    =       -25.5175 
Volume   =  19739935.8988 
---------------- Step     7400 ----- CPU =   1103.7134 (sec) ----------------
TotEng   =  -1618217.0659 KinEng   =   1376060.3427 Temp     =       299.8099 
PotEng   =  -2994277.4086 E_bond   =    165799.0510 E_angle  =    711037.4617 
E_dihed  =    336978.0316 E_impro  =     14217.7486 E_vdwl   =   -131657.9791 
E_coul   =  13327594.0561 E_long   = -17418245.7786 Press    =       -27.1446 
Volume   =  19741032.7038 
---------------- Step     7450 ----- CPU =   1111.2482 (sec) ----------------
TotEng   =  -1617750.6857 KinEng   =   1377068.0840 Temp     =       300.0294 
PotEng   =  -2994818.7697 E_bond   =    165629.8511 E_angle  =    711277.2089 
E_dihed  =    337106.4372 E_impro  =     14391.1574 E_vdwl   =   -132344.8579 
E_coul   =  13327497.0202 E_long   = -17418375.5866 Press    =        -4.4908 
Volume   =  19740598.5861 
---------------- Step     7500 ----- CPU =   1118.6317 (sec) ----------------
TotEng   =  -1617770.7755 KinEng   =   1376663.7010 Temp     =       299.9413 
PotEng   =  -2994434.4765 E_bond   =    166456.1235 E_angle  =    710807.6981 
E_dihed  =    336646.1265 E_impro  =     14263.9140 E_vdwl   =   -129944.2704 
E_coul   =  13325631.3257 E_long   = -17418295.3940 Press    =         0.5968 
Volume   =  19739578.5804 
---------------- Step     7550 ----- CPU =   1126.1589 (sec) ----------------
TotEng   =  -1618634.2933 KinEng   =   1376140.7903 Temp     =       299.8274 
PotEng   =  -2994775.0837 E_bond   =    165922.6819 E_angle  =    710950.1031 
E_dihed  =    336881.5732 E_impro  =     14188.9909 E_vdwl   =   -132203.3052 
E_coul   =  13327809.7547 E_long   = -17418324.8822 Press    =        -0.8197 
Volume   =  19739802.0243 
---------------- Step     7600 ----- CPU =   1133.6861 (sec) ----------------
TotEng   =  -1619490.2464 KinEng   =   1376993.4864 Temp     =       300.0132 
PotEng   =  -2996483.7329 E_bond   =    166062.1467 E_angle  =    710106.5683 
E_dihed  =    336838.8516 E_impro  =     14425.1379 E_vdwl   =   -132922.7025 
E_coul   =  13327319.0701 E_long   = -17418312.8051 Press    =       -46.8194 
Volume   =  19739440.8029 
---------------- Step     7650 ----- CPU =   1141.0591 (sec) ----------------
TotEng   =  -1620071.0992 KinEng   =   1376217.8158 Temp     =       299.8442 
PotEng   =  -2996288.9149 E_bond   =    165759.4823 E_angle  =    710150.0930 
E_dihed  =    336417.1301 E_impro  =     14341.5347 E_vdwl   =   -133161.3533 
E_coul   =  13328519.7363 E_long   = -17418315.5381 Press    =       -19.1794 
Volume   =  19738700.6038 
---------------- Step     7700 ----- CPU =   1148.4390 (sec) ----------------
TotEng   =  -1619376.4170 KinEng   =   1376070.5906 Temp     =       299.8121 
PotEng   =  -2995447.0076 E_bond   =    166036.8342 E_angle  =    710116.9382 
E_dihed  =    336428.3597 E_impro  =     14313.0329 E_vdwl   =   -131378.0440 
E_coul   =  13327272.3399 E_long   = -17418236.4686 Press    =       -33.9169 
Volume   =  19737548.5975 
---------------- Step     7750 ----- CPU =   1155.9773 (sec) ----------------
TotEng   =  -1617813.1987 KinEng   =   1377518.5679 Temp     =       300.1276 
PotEng   =  -2995331.7666 E_bond   =    166025.7143 E_angle  =    710687.3478 
E_dihed  =    336955.8661 E_impro  =     14263.0328 E_vdwl   =   -130772.9762 
E_coul   =  13325863.5543 E_long   = -17418354.3057 Press    =       -18.1123 
Volume   =  19736993.3952 
---------------- Step     7800 ----- CPU =   1163.5078 (sec) ----------------
TotEng   =  -1617515.4325 KinEng   =   1377876.0945 Temp     =       300.2055 
PotEng   =  -2995391.5270 E_bond   =    166421.6850 E_angle  =    710512.8082 
E_dihed  =    336491.4170 E_impro  =     14317.7309 E_vdwl   =   -131264.6712 
E_coul   =  13326544.7638 E_long   = -17418415.2608 Press    =        13.2046 
Volume   =  19736559.0742 
---------------- Step     7850 ----- CPU =   1170.8854 (sec) ----------------
TotEng   =  -1618811.8338 KinEng   =   1375789.2667 Temp     =       299.7508 
PotEng   =  -2994601.1005 E_bond   =    166274.5163 E_angle  =    710953.5649 
E_dihed  =    337105.8167 E_impro  =     14455.4381 E_vdwl   =   -132201.6753 
E_coul   =  13327126.8554 E_long   = -17418315.6165 Press    =        -9.9540 
Volume   =  19735881.6685 
---------------- Step     7900 ----- CPU =   1178.4277 (sec) ----------------
TotEng   =  -1619513.5408 KinEng   =   1375947.2518 Temp     =       299.7852 
PotEng   =  -2995460.7926 E_bond   =    165962.2666 E_angle  =    710643.1231 
E_dihed  =    336801.0470 E_impro  =     14301.4822 E_vdwl   =   -132020.1667 
E_coul   =  13327232.1894 E_long   = -17418380.7341 Press    =       -37.0175 
Volume   =  19735289.5095 
---------------- Step     7950 ----- CPU =   1185.8096 (sec) ----------------
TotEng   =  -1618857.6490 KinEng   =   1375653.8041 Temp     =       299.7213 
PotEng   =  -2994511.4532 E_bond   =    166525.4908 E_angle  =    710923.4077 
E_dihed  =    337479.2663 E_impro  =     14435.6670 E_vdwl   =   -131919.2480 
E_coul   =  13326435.4902 E_long   = -17418391.5271 Press    =       -64.2906 
Volume   =  19735314.1097 
---------------- Step     8000 ----- CPU =   1193.3428 (sec) ----------------
TotEng   =  -1617679.4706 KinEng   =   1377649.4377 Temp     =       300.1561 
PotEng   =  -2995328.9083 E_bond   =    166376.0196 E_angle  =    710165.2843 
E_dihed  =    336947.2033 E_impro  =     14505.5053 E_vdwl   =   -132082.0158 
E_coul   =  13327059.3175 E_long   = -17418300.2226 Press    =        18.6690 
Volume   =  19735676.5599 
---------------- Step     8050 ----- CPU =   1200.7245 (sec) ----------------
TotEng   =  -1617401.0188 KinEng   =   1377975.6690 Temp     =       300.2272 
PotEng   =  -2995376.6878 E_bond   =    166143.2283 E_angle  =    710278.4713 
E_dihed  =    336909.0000 E_impro  =     14512.2015 E_vdwl   =   -131720.0225 
E_coul   =  13326819.1378 E_long   = -17418318.7042 Press    =        -4.5410 
Volume   =  19735518.8576 
---------------- Step     8100 ----- CPU =   1208.2545 (sec) ----------------
TotEng   =  -1618325.0829 KinEng   =   1376702.7326 Temp     =       299.9498 
PotEng   =  -2995027.8155 E_bond   =    166335.9220 E_angle  =    710499.5376 
E_dihed  =    337017.1872 E_impro  =     14446.9273 E_vdwl   =   -130913.2298 
E_coul   =  13325925.7197 E_long   = -17418339.8795 Press    =        38.0175 
Volume   =  19734549.6089 
---------------- Step     8150 ----- CPU =   1215.7849 (sec) ----------------
TotEng   =  -1619837.5725 KinEng   =   1376398.6809 Temp     =       299.8836 
PotEng   =  -2996236.2534 E_bond   =    166247.8694 E_angle  =    710903.1483 
E_dihed  =    336764.4508 E_impro  =     14392.9402 E_vdwl   =   -131469.6381 
E_coul   =  13325249.0993 E_long   = -17418324.1234 Press    =        -5.8721 
Volume   =  19733671.1619 
---------------- Step     8200 ----- CPU =   1223.1670 (sec) ----------------
TotEng   =  -1620902.8702 KinEng   =   1375747.7531 Temp     =       299.7418 
PotEng   =  -2996650.6232 E_bond   =    166001.5322 E_angle  =    710496.7410 
E_dihed  =    337081.2378 E_impro  =     14402.1873 E_vdwl   =   -131247.0204 
E_coul   =  13324867.4621 E_long   = -17418252.7634 Press    =       -71.2800 
Volume   =  19732673.9630 
---------------- Step     8250 ----- CPU =   1230.6964 (sec) ----------------
TotEng   =  -1620722.5618 KinEng   =   1375939.5288 Temp     =       299.7835 
PotEng   =  -2996662.0906 E_bond   =    165952.6434 E_angle  =    711244.1955 
E_dihed  =    336684.1136 E_impro  =     14455.2858 E_vdwl   =   -131634.0001 
E_coul   =  13324964.6650 E_long   = -17418328.9938 Press    =       -21.2935 
Volume   =  19732095.8442 
---------------- Step     8300 ----- CPU =   1238.2318 (sec) ----------------
TotEng   =  -1619580.7818 KinEng   =   1375875.6821 Temp     =       299.7696 
PotEng   =  -2995456.4639 E_bond   =    166520.3795 E_angle  =    711271.2601 
E_dihed  =    336790.5875 E_impro  =     14392.8929 E_vdwl   =   -131711.9336 
E_coul   =  13325625.1421 E_long   = -17418344.7923 Press    =        28.6353 
Volume   =  19732100.0475 
---------------- Step     8350 ----- CPU =   1245.6004 (sec) ----------------
TotEng   =  -1618577.1296 KinEng   =   1377590.5971 Temp     =       300.1433 
PotEng   =  -2996167.7267 E_bond   =    165881.0332 E_angle  =    710790.7029 
E_dihed  =    336520.7292 E_impro  =     14377.0852 E_vdwl   =   -131332.9904 
E_coul   =  13325960.8563 E_long   = -17418365.1431 Press    =         8.0854 
Volume   =  19732682.9263 
---------------- Step     8400 ----- CPU =   1253.1266 (sec) ----------------
TotEng   =  -1618451.7937 KinEng   =   1377383.0863 Temp     =       300.0981 
PotEng   =  -2995834.8800 E_bond   =    166196.5928 E_angle  =    710469.7587 
E_dihed  =    337305.4400 E_impro  =     14621.8206 E_vdwl   =   -132663.5472 
E_coul   =  13326610.2370 E_long   = -17418375.1820 Press    =       -72.4545 
Volume   =  19734245.0219 
---------------- Step     8450 ----- CPU =   1260.6670 (sec) ----------------
TotEng   =  -1618957.8349 KinEng   =   1378033.2223 Temp     =       300.2397 
PotEng   =  -2996991.0572 E_bond   =    166286.1772 E_angle  =    710449.0671 
E_dihed  =    336918.5054 E_impro  =     14602.2616 E_vdwl   =   -132170.8448 
E_coul   =  13325318.9031 E_long   = -17418395.1267 Press    =       -71.9772 
Volume   =  19734566.7226 
---------------- Step     8500 ----- CPU =   1268.1995 (sec) ----------------
TotEng   =  -1619917.3537 KinEng   =   1376229.4392 Temp     =       299.8467 
PotEng   =  -2996146.7928 E_bond   =    165584.2874 E_angle  =    711131.1086 
E_dihed  =    336743.2105 E_impro  =     14440.5216 E_vdwl   =   -131814.9276 
E_coul   =  13326100.2074 E_long   = -17418331.2007 Press    =       -20.8521 
Volume   =  19733662.2051 
---------------- Step     8550 ----- CPU =   1275.7303 (sec) ----------------
TotEng   =  -1620767.3715 KinEng   =   1377148.5133 Temp     =       300.0469 
PotEng   =  -2997915.8847 E_bond   =    166164.4781 E_angle  =    710695.8659 
E_dihed  =    336714.3700 E_impro  =     14403.5530 E_vdwl   =   -130536.0864 
E_coul   =  13322877.3295 E_long   = -17418235.3948 Press    =         0.6067 
Volume   =  19733829.6895 
---------------- Step     8600 ----- CPU =   1283.1135 (sec) ----------------
TotEng   =  -1621636.3993 KinEng   =   1375748.4379 Temp     =       299.7419 
PotEng   =  -2997384.8372 E_bond   =    166154.1327 E_angle  =    710963.8043 
E_dihed  =    336845.3583 E_impro  =     14428.1532 E_vdwl   =   -132162.7531 
E_coul   =  13324681.9702 E_long   = -17418295.5027 Press    =         1.8900 
Volume   =  19734644.4397 
---------------- Step     8650 ----- CPU =   1290.6385 (sec) ----------------
TotEng   =  -1620208.4979 KinEng   =   1376257.9126 Temp     =       299.8529 
PotEng   =  -2996466.4104 E_bond   =    165782.8469 E_angle  =    711194.9138 
E_dihed  =    336909.0047 E_impro  =     14406.1288 E_vdwl   =   -130473.7032 
E_coul   =  13324077.7218 E_long   = -17418363.3232 Press    =       -56.5109 
Volume   =  19734191.1566 
---------------- Step     8700 ----- CPU =   1298.0197 (sec) ----------------
TotEng   =  -1618383.6599 KinEng   =   1377478.7044 Temp     =       300.1189 
PotEng   =  -2995862.3643 E_bond   =    166199.5290 E_angle  =    711412.3196 
E_dihed  =    337333.7743 E_impro  =     14311.3956 E_vdwl   =   -131125.6266 
E_coul   =  13324261.4121 E_long   = -17418255.1681 Press    =         0.4843 
Volume   =  19733060.6690 
---------------- Step     8750 ----- CPU =   1305.5483 (sec) ----------------
TotEng   =  -1618135.0302 KinEng   =   1378105.5648 Temp     =       300.2555 
PotEng   =  -2996240.5951 E_bond   =    166827.8924 E_angle  =    711016.6332 
E_dihed  =    336963.8438 E_impro  =     14384.7411 E_vdwl   =   -132046.9504 
E_coul   =  13324891.2360 E_long   = -17418277.9912 Press    =       -60.7454 
Volume   =  19731804.5409 
---------------- Step     8800 ----- CPU =   1312.9260 (sec) ----------------
TotEng   =  -1619273.0740 KinEng   =   1376914.6052 Temp     =       299.9960 
PotEng   =  -2996187.6792 E_bond   =    165954.2750 E_angle  =    711477.4308 
E_dihed  =    337402.2689 E_impro  =     14449.7483 E_vdwl   =   -131659.4906 
E_coul   =  13324471.4399 E_long   = -17418283.3514 Press    =       -16.2150 
Volume   =  19730438.2519 
---------------- Step     8850 ----- CPU =   1320.4638 (sec) ----------------
TotEng   =  -1621110.7337 KinEng   =   1378324.3360 Temp     =       300.3031 
PotEng   =  -2999435.0697 E_bond   =    165450.3146 E_angle  =    711290.7654 
E_dihed  =    336815.0491 E_impro  =     14407.2571 E_vdwl   =   -130184.9385 
E_coul   =  13321215.9922 E_long   = -17418429.5096 Press    =        23.7767 
Volume   =  19730510.4606 
---------------- Step     8900 ----- CPU =   1327.9957 (sec) ----------------
TotEng   =  -1622072.7250 KinEng   =   1376077.1339 Temp     =       299.8135 
PotEng   =  -2998149.8589 E_bond   =    165994.0433 E_angle  =    711335.7237 
E_dihed  =    336502.1162 E_impro  =     14436.9228 E_vdwl   =   -130695.2765 
E_coul   =  13322544.7946 E_long   = -17418268.1830 Press    =       -11.7833 
Volume   =  19731731.8254 
---------------- Step     8950 ----- CPU =   1335.3685 (sec) ----------------
TotEng   =  -1621458.0388 KinEng   =   1375686.3797 Temp     =       299.7284 
PotEng   =  -2997144.4185 E_bond   =    166223.9171 E_angle  =    711681.9764 
E_dihed  =    337020.1263 E_impro  =     14502.3470 E_vdwl   =   -131261.4225 
E_coul   =  13322988.7559 E_long   = -17418300.1187 Press    =       -47.6398 
Volume   =  19733516.9740 
---------------- Step     9000 ----- CPU =   1342.9051 (sec) ----------------
TotEng   =  -1620057.8255 KinEng   =   1377420.9746 Temp     =       300.1063 
PotEng   =  -2997478.8002 E_bond   =    166083.3858 E_angle  =    711563.2955 
E_dihed  =    336604.1572 E_impro  =     14395.2713 E_vdwl   =   -131951.5585 
E_coul   =  13324181.9539 E_long   = -17418355.3053 Press    =       -71.6510 
Volume   =  19734944.5619 
---------------- Step     9050 ----- CPU =   1350.2803 (sec) ----------------
TotEng   =  -1618803.5952 KinEng   =   1377340.1073 Temp     =       300.0887 
PotEng   =  -2996143.7026 E_bond   =    165719.5278 E_angle  =    712395.2727 
E_dihed  =    336873.9509 E_impro  =     14395.2447 E_vdwl   =   -131113.2543 
E_coul   =  13323964.0669 E_long   = -17418378.5113 Press    =       -17.9298 
Volume   =  19735401.7391 
---------------- Step     9100 ----- CPU =   1357.6565 (sec) ----------------
TotEng   =  -1619214.0553 KinEng   =   1378370.3839 Temp     =       300.3132 
PotEng   =  -2997584.4392 E_bond   =    166142.3229 E_angle  =    711749.6370 
E_dihed  =    336290.5133 E_impro  =     14334.4025 E_vdwl   =   -131578.2496 
E_coul   =  13323855.5087 E_long   = -17418378.5742 Press    =        -9.4495 
Volume   =  19736121.8458 
---------------- Step     9150 ----- CPU =   1365.1790 (sec) ----------------
TotEng   =  -1620877.2901 KinEng   =   1377281.1989 Temp     =       300.0759 
PotEng   =  -2998158.4890 E_bond   =    166126.0745 E_angle  =    710806.2144 
E_dihed  =    336775.5539 E_impro  =     14356.9655 E_vdwl   =   -130785.9930 
E_coul   =  13322822.9375 E_long   = -17418260.2418 Press    =       -25.1573 
Volume   =  19735637.9506 
---------------- Step     9200 ----- CPU =   1372.7115 (sec) ----------------
TotEng   =  -1621961.5627 KinEng   =   1377061.5424 Temp     =       300.0280 
PotEng   =  -2999023.1051 E_bond   =    166249.2095 E_angle  =    711650.8791 
E_dihed  =    336671.9813 E_impro  =     14379.3768 E_vdwl   =   -131976.1469 
E_coul   =  13322346.7734 E_long   = -17418345.1784 Press    =       -68.3349 
Volume   =  19734357.8566 
---------------- Step     9250 ----- CPU =   1380.0845 (sec) ----------------
TotEng   =  -1621598.9381 KinEng   =   1376314.9907 Temp     =       299.8653 
PotEng   =  -2997913.9288 E_bond   =    166425.2826 E_angle  =    710789.7970 
E_dihed  =    336655.1609 E_impro  =     14769.6666 E_vdwl   =   -130961.0786 
E_coul   =  13322804.8439 E_long   = -17418397.6012 Press    =         9.7767 
Volume   =  19733092.2670 
---------------- Step     9300 ----- CPU =   1387.6149 (sec) ----------------
TotEng   =  -1620104.9700 KinEng   =   1378229.4417 Temp     =       300.2825 
PotEng   =  -2998334.4116 E_bond   =    165958.4944 E_angle  =    711325.3030 
E_dihed  =    336686.4843 E_impro  =     14278.2107 E_vdwl   =   -129833.8060 
E_coul   =  13321558.1676 E_long   = -17418307.2655 Press    =       -29.0621 
Volume   =  19732518.1605 
---------------- Step     9350 ----- CPU =   1395.1369 (sec) ----------------
TotEng   =  -1619670.6821 KinEng   =   1377330.0324 Temp     =       300.0865 
PotEng   =  -2997000.7145 E_bond   =    165716.6282 E_angle  =    712147.7574 
E_dihed  =    336944.5318 E_impro  =     14484.1608 E_vdwl   =   -130255.8490 
E_coul   =  13322424.3065 E_long   = -17418462.2503 Press    =         3.6873 
Volume   =  19732127.2636 
---------------- Step     9400 ----- CPU =   1402.5191 (sec) ----------------
TotEng   =  -1620302.2036 KinEng   =   1376541.6248 Temp     =       299.9147 
PotEng   =  -2996843.8284 E_bond   =    166144.6672 E_angle  =    711089.0971 
E_dihed  =    337156.5235 E_impro  =     14615.7794 E_vdwl   =   -129292.1092 
E_coul   =  13321716.0871 E_long   = -17418273.8735 Press    =        12.6853 
Volume   =  19731490.0949 
---------------- Step     9450 ----- CPU =   1410.0466 (sec) ----------------
TotEng   =  -1620688.6043 KinEng   =   1375531.8818 Temp     =       299.6947 
PotEng   =  -2996220.4862 E_bond   =    166110.2021 E_angle  =    711323.4423 
E_dihed  =    337255.3499 E_impro  =     14505.4682 E_vdwl   =   -130646.0344 
E_coul   =  13323587.9028 E_long   = -17418356.8170 Press    =        -8.9042 
Volume   =  19731353.2648 
---------------- Step     9500 ----- CPU =   1417.5769 (sec) ----------------
TotEng   =  -1620256.2857 KinEng   =   1376416.3352 Temp     =       299.8874 
PotEng   =  -2996672.6209 E_bond   =    166329.3998 E_angle  =    711265.5639 
E_dihed  =    336957.0456 E_impro  =     14442.7714 E_vdwl   =   -130498.3917 
E_coul   =  13323221.2254 E_long   = -17418390.2352 Press    =        32.2240 
Volume   =  19731175.7560 
---------------- Step     9550 ----- CPU =   1425.1057 (sec) ----------------
TotEng   =  -1619321.3694 KinEng   =   1376682.3309 Temp     =       299.9454 
PotEng   =  -2996003.7003 E_bond   =    166188.0138 E_angle  =    712013.1932 
E_dihed  =    336912.5077 E_impro  =     14503.9989 E_vdwl   =   -130937.5341 
E_coul   =  13323617.9109 E_long   = -17418301.7908 Press    =       -61.6727 
Volume   =  19732582.1606 
---------------- Step     9600 ----- CPU =   1432.4796 (sec) ----------------
TotEng   =  -1618349.0605 KinEng   =   1378564.0860 Temp     =       300.3554 
PotEng   =  -2996913.1466 E_bond   =    166057.1041 E_angle  =    711865.3866 
E_dihed  =    337014.3444 E_impro  =     14413.9396 E_vdwl   =   -132770.1230 
E_coul   =  13324810.5042 E_long   = -17418304.3025 Press    =       -38.0802 
Volume   =  19733780.3347 
---------------- Step     9650 ----- CPU =   1440.0141 (sec) ----------------
TotEng   =  -1618670.6640 KinEng   =   1378010.0296 Temp     =       300.2347 
PotEng   =  -2996680.6936 E_bond   =    166311.4693 E_angle  =    711674.8665 
E_dihed  =    336718.5385 E_impro  =     14247.1689 E_vdwl   =   -131155.8206 
E_coul   =  13323794.9465 E_long   = -17418271.8626 Press    =       -15.4430 
Volume   =  19732587.3185 
---------------- Step     9700 ----- CPU =   1447.3889 (sec) ----------------
TotEng   =  -1620291.4130 KinEng   =   1377235.9831 Temp     =       300.0660 
PotEng   =  -2997527.3961 E_bond   =    165892.6255 E_angle  =    712014.0242 
E_dihed  =    336884.1187 E_impro  =     14357.4489 E_vdwl   =   -132053.3991 
E_coul   =  13323747.4350 E_long   = -17418369.6493 Press    =        13.5184 
Volume   =  19730174.5264 
---------------- Step     9750 ----- CPU =   1454.9189 (sec) ----------------
TotEng   =  -1622167.3905 KinEng   =   1375259.7173 Temp     =       299.6354 
PotEng   =  -2997427.1078 E_bond   =    165720.2478 E_angle  =    712065.7248 
E_dihed  =    336911.1016 E_impro  =     14376.6806 E_vdwl   =   -129795.5291 
E_coul   =  13321705.3105 E_long   = -17418410.6439 Press    =        -8.7369 
Volume   =  19727122.9666 
---------------- Step     9800 ----- CPU =   1462.4626 (sec) ----------------
TotEng   =  -1622452.2064 KinEng   =   1377342.0546 Temp     =       300.0891 
PotEng   =  -2999794.2610 E_bond   =    165870.2928 E_angle  =    711199.3887 
E_dihed  =    336953.1316 E_impro  =     14401.5029 E_vdwl   =   -128651.0485 
E_coul   =  13318800.3682 E_long   = -17418367.8966 Press    =        30.8248 
Volume   =  19724349.8063 
---------------- Step     9850 ----- CPU =   1469.8376 (sec) ----------------
TotEng   =  -1622932.8384 KinEng   =   1376736.4380 Temp     =       299.9572 
PotEng   =  -2999669.2764 E_bond   =    166056.9618 E_angle  =    711114.9448 
E_dihed  =    336917.8499 E_impro  =     14275.8528 E_vdwl   =   -129988.6740 
E_coul   =  13320228.1684 E_long   = -17418274.3802 Press    =       -29.3471 
Volume   =  19723294.9109 
---------------- Step     9900 ----- CPU =   1477.3671 (sec) ----------------
TotEng   =  -1622859.8704 KinEng   =   1377571.0923 Temp     =       300.1390 
PotEng   =  -3000430.9627 E_bond   =    165907.5324 E_angle  =    711119.4170 
E_dihed  =    336578.8312 E_impro  =     14431.5219 E_vdwl   =   -130947.1451 
E_coul   =  13320761.3729 E_long   = -17418282.4930 Press    =        -2.5674 
Volume   =  19723418.7769 
---------------- Step     9950 ----- CPU =   1484.7365 (sec) ----------------
TotEng   =  -1622501.0949 KinEng   =   1377314.6958 Temp     =       300.0832 
PotEng   =  -2999815.7907 E_bond   =    165960.0646 E_angle  =    711009.1082 
E_dihed  =    336337.0481 E_impro  =     14366.4701 E_vdwl   =   -129870.4749 
E_coul   =  13320715.6058 E_long   = -17418333.6126 Press    =         8.1599 
Volume   =  19723651.5625 
---------------- Step    10000 ----- CPU =   1492.2690 (sec) ----------------
TotEng   =  -1621870.5480 KinEng   =   1376455.2786 Temp     =       299.8959 
PotEng   =  -2998325.8266 E_bond   =    166456.5014 E_angle  =    711808.9672 
E_dihed  =    336658.0306 E_impro  =     14414.8343 E_vdwl   =   -130891.0516 
E_coul   =  13321627.4128 E_long   = -17418400.5213 Press    =       -44.2663 
Volume   =  19724142.7487 
Loop time of 1492.27 on 32 procs for 10000 steps with 2048000 atoms

Performance: 1.158 ns/day, 20.726 hours/ns, 6.701 timesteps/s
99.6% CPU use with 32 MPI tasks x 1 OpenMP threads

MPI task timing breakdown:
Section |  min time  |  avg time  |  max time  |%varavg| %total
---------------------------------------------------------------
Pair    | 889.51     | 893.54     | 899.33     |   9.6 | 59.88
Bond    | 57.888     | 58.978     | 60.218     |   7.1 |  3.95
Kspace  | 141.22     | 145.9      | 149.48     |  20.3 |  9.78
Neigh   | 135.68     | 135.96     | 136.23     |   1.5 |  9.11
Comm    | 85.067     | 86.757     | 90.248     |  19.7 |  5.81
Output  | 0.055498   | 0.05778    | 0.061359   |   0.6 |  0.00
Modify  | 154.68     | 161.46     | 164.18     |  28.5 | 10.82
Other   |            | 9.604      |            |       |  0.64

Nlocal:          64000 ave       64153 max       63752 min
Histogram: 1 1 0 2 5 6 6 2 6 3
Nghost:        71649.7 ave       71918 max       71444 min
Histogram: 1 3 3 10 6 2 3 1 1 2
Neighs:      2.405e+07 ave  2.4177e+07 max 2.38464e+07 min
Histogram: 1 1 1 2 3 6 6 6 2 4

Total # of neighbors = 7.6959976e+08
Ave neighs/atom = 375.78113
Ave special neighs/atom = 7.431875
Neighbor list builds = 1330
Dangerous builds = 0
Total wall time: 0:24:53
Intel(R) VTune(TM) Profiler 2022.2.0 collection completed successfully. Use the "aps --report /home/ubuntu/lammps/bench/aps_result_20220705" command to generate textual and HTML reports for the profiling session.
