LAMMPS (7 Jan 2022)
  using 1 OpenMP thread(s) per MPI task
Reading data file ...
  orthogonal box = (-27.5 -38.5 -36.3646) to (27.5 38.5 36.3615)
  1 by 1 by 1 MPI processor grid
  reading atoms ...
  32000 atoms
  reading velocities ...
  32000 velocities
  scanning bonds ...
  4 = max bonds/atom
  scanning angles ...
  8 = max angles/atom
  scanning dihedrals ...
  18 = max dihedrals/atom
  scanning impropers ...
  2 = max impropers/atom
  reading bonds ...
  27723 bonds
  reading angles ...
  40467 angles
  reading dihedrals ...
  56829 dihedrals
  reading impropers ...
  1034 impropers
Finding 1-2 1-3 1-4 neighbors ...
  special bond factors lj:    0        0        0       
  special bond factors coul:  0        0        0       
     4 = max # of 1-2 neighbors
    12 = max # of 1-3 neighbors
    24 = max # of 1-4 neighbors
    26 = max # of special neighbors
  special bonds CPU = 0.033 seconds
  read_data CPU = 0.374 seconds
Replicating atoms ...
  orthogonal box = (-27.5 -38.5 -36.3646) to (137.5 192.5 181.8137)
  1 by 1 by 1 MPI processor grid
  864000 atoms
  748521 bonds
  1092609 angles
  1534383 dihedrals
  27918 impropers
Finding 1-2 1-3 1-4 neighbors ...
  special bond factors lj:    0        0        0       
  special bond factors coul:  0        0        0       
     4 = max # of 1-2 neighbors
    12 = max # of 1-3 neighbors
    24 = max # of 1-4 neighbors
    26 = max # of special neighbors
  special bonds CPU = 0.880 seconds
  replicate CPU = 1.444 seconds
Finding SHAKE clusters ...
   43659 = # of size 2 clusters
   98091 = # of size 3 clusters
   20169 = # of size 4 clusters
  114291 = # of frozen angles
  find clusters CPU = 0.406 seconds
PPPM initialization ...
  using 12-bit tables for long-range coulomb (../kspace.cpp:340)
  G vector (1/distance) = 0.25235202
  grid = 72 90 90
  stencil order = 7
  estimated absolute RMS force accuracy = 0.029803316
  estimated relative force accuracy = 8.9751802e-05
  using single precision MKL FFT
  3d grid and FFT values/proc = 743311 583200
----------------------------------------------------------
Using INTEL Package without Coprocessor.
Compiler: Intel Classic C++ 20.21.5 / Intel(R) C++ g++ 9.3 mode
SIMD compiler directives: Enabled
Precision: double
----------------------------------------------------------
  generated 2278 of 2278 mixed pair_coeff terms from arithmetic mixing rule
Neighbor list info ...
  update every 1 steps, delay 5 steps, check yes
  max neighbors/atom: 2000, page size: 100000
  master list distance cutoff = 12
  ghost atom cutoff = 12
  binsize = 6, bins = 28 39 37
  1 neighbor lists, perpetual/occasional/extra = 1 0 0
  (1) pair lj/charmm/coul/long/intel, perpetual
      attributes: half, newton on, intel
      pair build: half/bin/newton/intel
      stencil: half/bin/3d
      bin: intel
Setting up Verlet run ...
  Unit style    : real
  Current step  : 0
  Time step     : 2
Per MPI rank memory allocation (min/avg/max) = 8800 | 8800 | 8800 Mbytes
---------------- Step        0 ----- CPU =      0.0000 (sec) ----------------
TotEng   =   -684670.9565 KinEng   =    579010.4447 Temp     =       299.0277 
PotEng   =  -1263681.4012 E_bond   =     68525.8383 E_angle  =    294877.1036 
E_dihed  =    140718.2355 E_impro  =      5764.8128 E_vdwl   =    -62312.3122 
E_coul   =   5692538.1567 E_long   =  -7403793.2359 Press    =      -148.6832 
Volume   =   8315865.9045 
---------------- Step       50 ----- CPU =    223.7116 (sec) ----------------
TotEng   =   -683945.6493 KinEng   =    580525.8188 Temp     =       299.8103 
PotEng   =  -1264471.4681 E_bond   =     66737.5785 E_angle  =    292591.4003 
E_dihed  =    141470.6782 E_impro  =      6132.4691 E_vdwl   =    -53811.5411 
E_coul   =   5686393.0172 E_long   =  -7403985.0703 Press    =       238.8965 
Volume   =   8316862.5936 
---------------- Step      100 ----- CPU =    451.7504 (sec) ----------------
TotEng   =   -682828.4261 KinEng   =    582914.8382 Temp     =       301.0441 
PotEng   =  -1265743.2643 E_bond   =     69335.3114 E_angle  =    291121.5328 
E_dihed  =    140366.2562 E_impro  =      5852.7818 E_vdwl   =    -51271.5961 
E_coul   =   5682697.3163 E_long   =  -7403844.8667 Press    =        14.5563 
Volume   =   8319656.0585 
Loop time of 451.75 on 1 procs for 100 steps with 864000 atoms

Performance: 0.038 ns/day, 627.431 hours/ns, 0.221 timesteps/s
50.0% CPU use with 1 MPI tasks x 1 OpenMP threads

MPI task timing breakdown:
Section |  min time  |  avg time  |  max time  |%varavg| %total
---------------------------------------------------------------
Pair    | 307.58     | 307.58     | 307.58     |   0.0 | 68.09
Bond    | 18.083     | 18.083     | 18.083     |   0.0 |  4.00
Kspace  | 55.534     | 55.534     | 55.534     |   0.0 | 12.29
Neigh   | 31.413     | 31.413     | 31.413     |   0.0 |  6.95
Comm    | 11.297     | 11.297     | 11.297     |   0.0 |  2.50
Output  | 0.018942   | 0.018942   | 0.018942   |   0.0 |  0.00
Modify  | 26.796     | 26.796     | 26.796     |   0.0 |  5.93
Other   |            | 1.026      |            |       |  0.23

Nlocal:         864000 ave      864000 max      864000 min
Histogram: 1 0 0 0 0 0 0 0 0 0
Nghost:         347611 ave      347611 max      347611 min
Histogram: 1 0 0 0 0 0 0 0 0 0
Neighs:    3.24758e+08 ave 3.24758e+08 max 3.24758e+08 min
Histogram: 1 0 0 0 0 0 0 0 0 0

Total # of neighbors = 3.2475846e+08
Ave neighs/atom = 375.87785
Ave special neighs/atom = 7.431875
Neighbor list builds = 11
Dangerous builds = 0
Total wall time: 0:07:45
Intel(R) VTune(TM) Profiler 2022.2.0 collection completed successfully. Use the "aps --report /home/ubuntu/lammps/bench/aps_result_20220531" command to generate textual and HTML reports for the profiling session.
