LAMMPS (7 Jan 2022)
  using 1 OpenMP thread(s) per MPI task
Reading data file ...
  orthogonal box = (-27.5 -38.5 -36.3646) to (27.5 38.5 36.3615)
  1 by 2 by 2 MPI processor grid
  reading atoms ...
  32000 atoms
  reading velocities ...
  32000 velocities
  scanning bonds ...
  4 = max bonds/atom
  scanning angles ...
  8 = max angles/atom
  scanning dihedrals ...
  18 = max dihedrals/atom
  scanning impropers ...
  2 = max impropers/atom
  reading bonds ...
  27723 bonds
  reading angles ...
  40467 angles
  reading dihedrals ...
  56829 dihedrals
  reading impropers ...
  1034 impropers
Finding 1-2 1-3 1-4 neighbors ...
  special bond factors lj:    0        0        0       
  special bond factors coul:  0        0        0       
     4 = max # of 1-2 neighbors
    12 = max # of 1-3 neighbors
    24 = max # of 1-4 neighbors
    26 = max # of special neighbors
  special bonds CPU = 0.005 seconds
  read_data CPU = 2.526 seconds
Replicating atoms ...
  orthogonal box = (-27.5 -38.5 -36.3646) to (137.5 192.5 181.8137)
  1 by 2 by 2 MPI processor grid
  864000 atoms
  748521 bonds
  1092609 angles
  1534383 dihedrals
  27918 impropers
Finding 1-2 1-3 1-4 neighbors ...
  special bond factors lj:    0        0        0       
  special bond factors coul:  0        0        0       
     4 = max # of 1-2 neighbors
    12 = max # of 1-3 neighbors
    24 = max # of 1-4 neighbors
    26 = max # of special neighbors
  special bonds CPU = 0.304 seconds
  replicate CPU = 0.547 seconds
Finding SHAKE clusters ...
   43659 = # of size 2 clusters
   98091 = # of size 3 clusters
   20169 = # of size 4 clusters
  114291 = # of frozen angles
  find clusters CPU = 0.188 seconds
PPPM initialization ...
  using 12-bit tables for long-range coulomb (../kspace.cpp:340)
  G vector (1/distance) = 0.25235202
  grid = 72 90 90
  stencil order = 7
  estimated absolute RMS force accuracy = 0.029803316
  estimated relative force accuracy = 8.9751802e-05
  using single precision MKL FFT
  3d grid and FFT values/proc = 213616 149040
----------------------------------------------------------
Using INTEL Package without Coprocessor.
Compiler: Intel Classic C++ 20.21.5 / Intel(R) C++ g++ 9.3 mode
SIMD compiler directives: Enabled
Precision: double
----------------------------------------------------------
  generated 2278 of 2278 mixed pair_coeff terms from arithmetic mixing rule
Neighbor list info ...
  update every 1 steps, delay 5 steps, check yes
  max neighbors/atom: 2000, page size: 100000
  master list distance cutoff = 12
  ghost atom cutoff = 12
  binsize = 6, bins = 28 39 37
  1 neighbor lists, perpetual/occasional/extra = 1 0 0
  (1) pair lj/charmm/coul/long/intel, perpetual
      attributes: half, newton on, intel
      pair build: half/bin/newton/intel
      stencil: half/bin/3d
      bin: intel
Setting up Verlet run ...
  Unit style    : real
  Current step  : 0
  Time step     : 2
Per MPI rank memory allocation (min/avg/max) = 2288 | 2293 | 2300 Mbytes
---------------- Step        0 ----- CPU =      0.0000 (sec) ----------------
TotEng   =   -684670.9565 KinEng   =    579010.4447 Temp     =       299.0277 
PotEng   =  -1263681.4011 E_bond   =     68525.8383 E_angle  =    294877.1036 
E_dihed  =    140718.2355 E_impro  =      5764.8128 E_vdwl   =    -62312.3122 
E_coul   =   5692538.1567 E_long   =  -7403793.2358 Press    =      -148.6832 
Volume   =   8315865.9045 
---------------- Step       50 ----- CPU =     60.8708 (sec) ----------------
TotEng   =   -683945.6568 KinEng   =    580525.8126 Temp     =       299.8103 
PotEng   =  -1264471.4693 E_bond   =     66737.5806 E_angle  =    292591.3991 
E_dihed  =    141470.6781 E_impro  =      6132.4692 E_vdwl   =    -53811.5414 
E_coul   =   5686393.0159 E_long   =  -7403985.0710 Press    =       238.8968 
Volume   =   8316862.5938 
---------------- Step      100 ----- CPU =    124.7921 (sec) ----------------
TotEng   =   -682828.4927 KinEng   =    582914.8218 Temp     =       301.0441 
PotEng   =  -1265743.3146 E_bond   =     69335.3084 E_angle  =    291121.5349 
E_dihed  =    140366.2581 E_impro  =      5852.7797 E_vdwl   =    -51271.5837 
E_coul   =   5682697.2138 E_long   =  -7403844.8258 Press    =        14.5550 
Volume   =   8319656.0594 
Loop time of 124.792 on 4 procs for 100 steps with 864000 atoms

Performance: 0.138 ns/day, 173.322 hours/ns, 0.801 timesteps/s
67.6% CPU use with 4 MPI tasks x 1 OpenMP threads

MPI task timing breakdown:
Section |  min time  |  avg time  |  max time  |%varavg| %total
---------------------------------------------------------------
Pair    | 38.503     | 57.702     | 76.902     | 252.2 | 46.24
Bond    | 2.0592     | 3.1377     | 4.3291     |  60.0 |  2.51
Kspace  | 20.913     | 41.336     | 61.51      | 313.1 | 33.12
Neigh   | 8.2604     | 8.3122     | 8.3497     |   1.2 |  6.66
Comm    | 4.247      | 4.4479     | 4.7243     |   8.4 |  3.56
Output  | 0.0007609  | 0.0007927  | 0.00083794 |   0.0 |  0.00
Modify  | 8.7079     | 9.0586     | 9.3941     |  10.8 |  7.26
Other   |            | 0.7972     |            |       |  0.64

Nlocal:         216000 ave      216966 max      215355 min
Histogram: 1 0 1 1 0 0 0 0 0 1
Nghost:         147374 ave      147738 max      146825 min
Histogram: 1 0 0 0 0 1 0 0 1 1
Neighs:    8.11896e+07 ave 8.18001e+07 max 8.07828e+07 min
Histogram: 1 0 1 1 0 0 0 0 0 1

Total # of neighbors = 3.2475846e+08
Ave neighs/atom = 375.87785
Ave special neighs/atom = 7.431875
Neighbor list builds = 11
Dangerous builds = 0
Total wall time: 0:02:11
Intel(R) VTune(TM) Profiler 2022.2.0 collection completed successfully. Use the "aps --report /home/ubuntu/lammps/bench/aps_result_20220531" command to generate textual and HTML reports for the profiling session.
