LAMMPS (7 Jan 2022)
  using 1 OpenMP thread(s) per MPI task
Reading data file ...
  orthogonal box = (-27.5 -38.5 -36.3646) to (27.5 38.5 36.3615)
  4 by 4 by 4 MPI processor grid
  reading atoms ...
  32000 atoms
  reading velocities ...
  32000 velocities
  scanning bonds ...
  4 = max bonds/atom
  scanning angles ...
  8 = max angles/atom
  scanning dihedrals ...
  18 = max dihedrals/atom
  scanning impropers ...
  2 = max impropers/atom
  reading bonds ...
  27723 bonds
  reading angles ...
  40467 angles
  reading dihedrals ...
  56829 dihedrals
  reading impropers ...
  1034 impropers
Finding 1-2 1-3 1-4 neighbors ...
  special bond factors lj:    0        0        0       
  special bond factors coul:  0        0        0       
     4 = max # of 1-2 neighbors
    12 = max # of 1-3 neighbors
    24 = max # of 1-4 neighbors
    26 = max # of special neighbors
  special bonds CPU = 0.016 seconds
  read_data CPU = 0.237 seconds
Replicating atoms ...
  orthogonal box = (-27.5 -38.5 -36.3646) to (192.5 269.5 254.5398)
  4 by 4 by 4 MPI processor grid
  2048000 atoms
  1774272 bonds
  2589888 angles
  3637056 dihedrals
  66176 impropers
Finding 1-2 1-3 1-4 neighbors ...
  special bond factors lj:    0        0        0       
  special bond factors coul:  0        0        0       
     4 = max # of 1-2 neighbors
    12 = max # of 1-3 neighbors
    24 = max # of 1-4 neighbors
    26 = max # of special neighbors
  special bonds CPU = 0.051 seconds
  replicate CPU = 0.105 seconds
Finding SHAKE clusters ...
  103488 = # of size 2 clusters
  232512 = # of size 3 clusters
   47808 = # of size 4 clusters
  270912 = # of frozen angles
  find clusters CPU = 0.024 seconds
PPPM initialization ...
  using 12-bit tables for long-range coulomb (../kspace.cpp:340)
  G vector (1/distance) = 0.36082601
  grid = 270 360 324
  stencil order = 7
  estimated absolute RMS force accuracy = 3.9645452e-05
  estimated relative force accuracy = 1.193911e-07
  using single precision MKL FFT
  3d grid and FFT values/proc = 686070 583200
----------------------------------------------------------
Using INTEL Package without Coprocessor.
Compiler: Intel Classic C++ 20.21.5 / Intel(R) C++ g++ 9.3 mode
SIMD compiler directives: Enabled
Precision: mixed
----------------------------------------------------------
  generated 2278 of 2278 mixed pair_coeff terms from arithmetic mixing rule
Neighbor list info ...
  update every 1 steps, delay 5 steps, check yes
  max neighbors/atom: 2000, page size: 100000
  master list distance cutoff = 12
  ghost atom cutoff = 12
  binsize = 6, bins = 37 52 49
  1 neighbor lists, perpetual/occasional/extra = 1 0 0
  (1) pair lj/charmm/coul/long/intel, perpetual
      attributes: half, newton on, intel
      pair build: half/bin/newton/intel
      stencil: half/bin/3d
      bin: intel
Setting up Verlet run ...
  Unit style    : real
  Current step  : 0
  Time step     : 2
Per MPI rank memory allocation (min/avg/max) = 413.7 | 414.4 | 420.5 Mbytes
---------------- Step        0 ----- CPU =      0.0000 (sec) ----------------
TotEng   =  -1622977.8240 KinEng   =   1372469.2022 Temp     =       299.0274 
PotEng   =  -2995447.0262 E_bond   =    162431.7411 E_angle  =    698967.9457 
E_dihed  =    333554.2808 E_impro  =     13664.8915 E_vdwl   =   -147703.2770 
E_coul   =  20972498.9647 E_long   = -25028861.5731 Press    =      -152.9857 
Volume   =  19711682.1440 
---------------- Step       50 ----- CPU =     14.4246 (sec) ----------------
TotEng   =  -1621297.7970 KinEng   =   1376086.4403 Temp     =       299.8155 
PotEng   =  -2997384.2373 E_bond   =    158186.7549 E_angle  =    693554.5196 
E_dihed  =    335326.6707 E_impro  =     14537.2292 E_vdwl   =   -127519.2329 
E_coul   =  20958737.6683 E_long   = -25030207.8471 Press    =       234.7933 
Volume   =  19713990.8240 
---------------- Step      100 ----- CPU =     28.8564 (sec) ----------------
TotEng   =  -1618398.8992 KinEng   =   1381891.0499 Temp     =       301.0802 
PotEng   =  -3000289.9491 E_bond   =    164344.1027 E_angle  =    690028.4959 
E_dihed  =    332708.7355 E_impro  =     13873.8627 E_vdwl   =   -121617.9867 
E_coul   =  20950243.8412 E_long   = -25029871.0004 Press    =        12.2232 
Volume   =  19720480.4299 
Loop time of 28.8565 on 64 procs for 100 steps with 2048000 atoms

Performance: 0.599 ns/day, 40.078 hours/ns, 3.465 timesteps/s
95.2% CPU use with 64 MPI tasks x 1 OpenMP threads

MPI task timing breakdown:
Section |  min time  |  avg time  |  max time  |%varavg| %total
---------------------------------------------------------------
Pair    | 5.0751     | 5.158      | 5.2508     |   1.8 | 17.87
Bond    | 0.3239     | 0.33284    | 0.34107    |   0.8 |  1.15
Kspace  | 15.89      | 16.101     | 16.332     |   3.9 | 55.80
Neigh   | 0.6564     | 0.65959    | 0.66195    |   0.2 |  2.29
Comm    | 0.51758    | 0.70191    | 0.88069    |  17.4 |  2.43
Output  | 0.00031297 | 0.00032253 | 0.00039567 |   0.0 |  0.00
Modify  | 5.3451     | 5.4583     | 6.146      |   7.6 | 18.92
Other   |            | 0.4441     |            |       |  1.54

Nlocal:          32000 ave       32000 max       32000 min
Histogram: 64 0 0 0 0 0 0 0 0 0
Nghost:        47944.6 ave       47946 max       47944 min
Histogram: 38 0 0 0 0 12 0 0 0 14
Neighs:    1.20281e+07 ave 1.20483e+07 max 1.20071e+07 min
Histogram: 16 0 0 16 0 0 16 0 0 16

Total # of neighbors = 7.6979941e+08
Ave neighs/atom = 375.87862
Ave special neighs/atom = 7.431875
Neighbor list builds = 11
Dangerous builds = 0
Total wall time: 0:00:29
Intel(R) VTune(TM) Profiler 2022.2.0 collection completed successfully. Use the "aps --report /home/ubuntu/lammps/bench/aps_result_20220601" command to generate textual and HTML reports for the profiling session.
