LAMMPS (7 Jan 2022)
  using 1 OpenMP thread(s) per MPI task
Reading data file ...
  orthogonal box = (-27.5 -38.5 -36.3646) to (27.5 38.5 36.3615)
  4 by 4 by 4 MPI processor grid
  reading atoms ...
  32000 atoms
  reading velocities ...
  32000 velocities
  scanning bonds ...
  4 = max bonds/atom
  scanning angles ...
  8 = max angles/atom
  scanning dihedrals ...
  18 = max dihedrals/atom
  scanning impropers ...
  2 = max impropers/atom
  reading bonds ...
  27723 bonds
  reading angles ...
  40467 angles
  reading dihedrals ...
  56829 dihedrals
  reading impropers ...
  1034 impropers
Finding 1-2 1-3 1-4 neighbors ...
  special bond factors lj:    0        0        0       
  special bond factors coul:  0        0        0       
     4 = max # of 1-2 neighbors
    12 = max # of 1-3 neighbors
    24 = max # of 1-4 neighbors
    26 = max # of special neighbors
  special bonds CPU = 0.025 seconds
  read_data CPU = 0.370 seconds
Replicating atoms ...
  orthogonal box = (-27.5 -38.5 -36.3646) to (82.5 115.5 109.0876)
  4 by 4 by 4 MPI processor grid
  256000 atoms
  221784 bonds
  323736 angles
  454632 dihedrals
  8272 impropers
Finding 1-2 1-3 1-4 neighbors ...
  special bond factors lj:    0        0        0       
  special bond factors coul:  0        0        0       
     4 = max # of 1-2 neighbors
    12 = max # of 1-3 neighbors
    24 = max # of 1-4 neighbors
    26 = max # of special neighbors
  special bonds CPU = 0.030 seconds
  replicate CPU = 0.066 seconds
Finding SHAKE clusters ...
   12936 = # of size 2 clusters
   29064 = # of size 3 clusters
    5976 = # of size 4 clusters
   33864 = # of frozen angles
  find clusters CPU = 0.023 seconds
Ewald initialization ...
  using 12-bit tables for long-range coulomb (../kspace.cpp:340)
  G vector (1/distance) = 0.24317651
  estimated absolute RMS force accuracy = 0.040677215
  estimated relative force accuracy = 0.00012249823
  KSpace vectors: actual max1d max3d = 41160 29 102689
                  kxmax kymax kzmax  = 22 29 28
----------------------------------------------------------
Using INTEL Package without Coprocessor.
Compiler: Intel Classic C++ 20.21.5 / Intel(R) C++ g++ 9.3 mode
SIMD compiler directives: Enabled
Precision: mixed
----------------------------------------------------------
  generated 2278 of 2278 mixed pair_coeff terms from arithmetic mixing rule
Neighbor list info ...
  update every 1 steps, delay 5 steps, check yes
  max neighbors/atom: 2000, page size: 100000
  master list distance cutoff = 12
  ghost atom cutoff = 12
  binsize = 6, bins = 19 26 25
  1 neighbor lists, perpetual/occasional/extra = 1 0 0
  (1) pair lj/charmm/coul/long/intel, perpetual
      attributes: half, newton on, intel
      pair build: half/bin/newton/intel
      stencil: half/bin/3d
      bin: intel
Setting up Verlet run ...
  Unit style    : real
  Current step  : 0
  Time step     : 2
Per MPI rank memory allocation (min/avg/max) = 171.2 | 171.8 | 172.4 Mbytes
---------------- Step        0 ----- CPU =      0.0000 (sec) ----------------
TotEng   =   -202873.9534 KinEng   =    171558.6503 Temp     =       299.0288 
PotEng   =   -374432.6037 E_bond   =     20303.9370 E_angle  =     87370.9630 
E_dihed  =     41694.2900 E_impro  =      1708.1116 E_vdwl   =    -18462.9090 
E_coul   =   1607174.8522 E_long   =  -2114221.8484 Press    =      -144.5084 
Volume   =   2463960.2680 
---------------- Step       50 ----- CPU =     75.1084 (sec) ----------------
TotEng   =   -202656.3464 KinEng   =    172009.0057 Temp     =       299.8138 
PotEng   =   -374665.3522 E_bond   =     19774.4531 E_angle  =     86693.1769 
E_dihed  =     41917.8319 E_impro  =      1816.8489 E_vdwl   =    -15947.5414 
E_coul   =   1605350.2772 E_long   =  -2114270.3986 Press    =       241.8093 
Volume   =   2464264.1292 
---------------- Step      100 ----- CPU =    150.2358 (sec) ----------------
TotEng   =   -202342.5721 KinEng   =    172732.2324 Temp     =       301.0744 
PotEng   =   -375074.8045 E_bond   =     20546.2510 E_angle  =     86258.6898 
E_dihed  =     41589.4484 E_impro  =      1733.8740 E_vdwl   =    -15194.2242 
E_coul   =   1604222.5960 E_long   =  -2114231.4394 Press    =        13.0339 
Volume   =   2465113.7354 
Loop time of 150.236 on 64 procs for 100 steps with 256000 atoms

Performance: 0.115 ns/day, 208.661 hours/ns, 0.666 timesteps/s
85.5% CPU use with 64 MPI tasks x 1 OpenMP threads

MPI task timing breakdown:
Section |  min time  |  avg time  |  max time  |%varavg| %total
---------------------------------------------------------------
Pair    | 0.59278    | 0.62055    | 1.1124     |   8.0 |  0.41
Bond    | 0.036605   | 0.039769   | 0.055732   |   1.4 |  0.03
Kspace  | 81.235     | 83.892     | 148.11     |  88.9 | 55.84
Neigh   | 0.17544    | 0.17598    | 0.1766     |   0.1 |  0.12
Comm    | 0.17606    | 27.948     | 67.409     | 595.0 | 18.60
Output  | 0.00012824 | 0.00013164 | 0.00020481 |   0.0 |  0.00
Modify  | 0.38805    | 37.398     | 64.977     | 516.8 | 24.89
Other   |            | 0.162      |            |       |  0.11

Nlocal:           4000 ave        4083 max        3942 min
Histogram: 16 8 0 8 16 0 0 0 8 8
Nghost:          16028 ave       16082 max       15941 min
Histogram: 8 0 0 16 0 8 0 0 8 24
Neighs:    1.50348e+06 ave 1.55555e+06 max 1.45887e+06 min
Histogram: 12 8 4 8 8 8 0 0 4 12

Total # of neighbors = 96222922
Ave neighs/atom = 375.87079
Ave special neighs/atom = 7.431875
Neighbor list builds = 11
Dangerous builds = 0
Total wall time: 0:02:32
Intel(R) VTune(TM) Profiler 2022.2.0 collection completed successfully. Use the "aps --report /home/ubuntu/lammps/bench/aps_result_20220530" command to generate textual and HTML reports for the profiling session.
