LAMMPS (7 Jan 2022)
  using 1 OpenMP thread(s) per MPI task
Reading data file ...
  orthogonal box = (-27.5 -38.5 -36.3646) to (27.5 38.5 36.3615)
  2 by 4 by 2 MPI processor grid
  reading atoms ...
  32000 atoms
  reading velocities ...
  32000 velocities
  scanning bonds ...
  4 = max bonds/atom
  scanning angles ...
  8 = max angles/atom
  scanning dihedrals ...
  18 = max dihedrals/atom
  scanning impropers ...
  2 = max impropers/atom
  reading bonds ...
  27723 bonds
  reading angles ...
  40467 angles
  reading dihedrals ...
  56829 dihedrals
  reading impropers ...
  1034 impropers
Finding 1-2 1-3 1-4 neighbors ...
  special bond factors lj:    0        0        0       
  special bond factors coul:  0        0        0       
     4 = max # of 1-2 neighbors
    12 = max # of 1-3 neighbors
    24 = max # of 1-4 neighbors
    26 = max # of special neighbors
  special bonds CPU = 0.005 seconds
  read_data CPU = 0.234 seconds
Replicating atoms ...
  orthogonal box = (-27.5 -38.5 -36.3646) to (192.5 269.5 254.5398)
  2 by 4 by 2 MPI processor grid
  2048000 atoms
  1774272 bonds
  2589888 angles
  3637056 dihedrals
  66176 impropers
Finding 1-2 1-3 1-4 neighbors ...
  special bond factors lj:    0        0        0       
  special bond factors coul:  0        0        0       
     4 = max # of 1-2 neighbors
    12 = max # of 1-3 neighbors
    24 = max # of 1-4 neighbors
    26 = max # of special neighbors
  special bonds CPU = 0.130 seconds
  replicate CPU = 0.240 seconds
Finding SHAKE clusters ...
  103488 = # of size 2 clusters
  232512 = # of size 3 clusters
   47808 = # of size 4 clusters
  270912 = # of frozen angles
  find clusters CPU = 0.054 seconds
PPPM initialization ...
  using 12-bit tables for long-range coulomb (../kspace.cpp:340)
  G vector (1/distance) = 0.25045586
  grid = 90 120 120
  stencil order = 7
  estimated absolute RMS force accuracy = 0.032785255
  estimated relative force accuracy = 9.8731821e-05
  using single precision MKL FFT
  3d grid and FFT values/proc = 128908 86400
----------------------------------------------------------
Using INTEL Package without Coprocessor.
Compiler: Intel Classic C++ 20.21.5 / Intel(R) C++ g++ 9.3 mode
SIMD compiler directives: Enabled
Precision: mixed
----------------------------------------------------------
  generated 2278 of 2278 mixed pair_coeff terms from arithmetic mixing rule
Neighbor list info ...
  update every 1 steps, delay 5 steps, check yes
  max neighbors/atom: 2000, page size: 100000
  master list distance cutoff = 12
  ghost atom cutoff = 12
  binsize = 6, bins = 37 52 49
  1 neighbor lists, perpetual/occasional/extra = 1 0 0
  (1) pair lj/charmm/coul/long/intel, perpetual
      attributes: half, newton on, intel
      pair build: half/bin/newton/intel
      stencil: half/bin/3d
      bin: intel
Setting up Verlet run ...
  Unit style    : real
  Current step  : 0
  Time step     : 2
Per MPI rank memory allocation (min/avg/max) = 1381 | 1381 | 1381 Mbytes
---------------- Step        0 ----- CPU =      0.0000 (sec) ----------------
TotEng   =  -1622915.6799 KinEng   =   1372469.2022 Temp     =       299.0274 
PotEng   =  -2995384.8821 E_bond   =    162431.7410 E_angle  =    698967.9457 
E_dihed  =    333554.2808 E_impro  =     13664.8915 E_vdwl   =   -147703.2770 
E_coul   =  13362001.3166 E_long   = -17418301.7807 Press    =      -148.3958 
Volume   =  19711682.1440 
---------------- Step       50 ----- CPU =     14.0104 (sec) ----------------
TotEng   =  -1621183.8264 KinEng   =   1376067.7192 Temp     =       299.8115 
PotEng   =  -2997251.5456 E_bond   =    158192.9514 E_angle  =    693548.5591 
E_dihed  =    335338.8974 E_impro  =     14535.8928 E_vdwl   =   -127558.7900 
E_coul   =  13347432.8266 E_long   = -17418741.8829 Press    =       238.9880 
Volume   =  19714045.9992 
---------------- Step      100 ----- CPU =     27.8522 (sec) ----------------
TotEng   =  -1618558.0405 KinEng   =   1381768.2636 Temp     =       301.0535 
PotEng   =  -3000326.3041 E_bond   =    164353.0130 E_angle  =    690067.3537 
E_dihed  =    332721.4336 E_impro  =     13872.8902 E_vdwl   =   -121547.6933 
E_coul   =  13338616.0659 E_long   = -17418409.3672 Press    =        13.8307 
Volume   =  19720671.8853 
---------------- Step      150 ----- CPU =     41.6907 (sec) ----------------
TotEng   =  -1616497.9690 KinEng   =   1378029.0948 Temp     =       300.2388 
PotEng   =  -2994527.0638 E_bond   =    163634.7346 E_angle  =    694683.0907 
E_dihed  =    336936.0675 E_impro  =     12996.8153 E_vdwl   =   -132627.4805 
E_coul   =  13347654.9694 E_long   = -17417805.2608 Press    =       245.4559 
Volume   =  19745198.4963 
---------------- Step      200 ----- CPU =     55.5139 (sec) ----------------
TotEng   =  -1605084.6209 KinEng   =   1377873.2698 Temp     =       300.2049 
PotEng   =  -2982957.8908 E_bond   =    159327.3101 E_angle  =    708809.7998 
E_dihed  =    334154.5080 E_impro  =     14881.2235 E_vdwl   =   -137567.9744 
E_coul   =  13355396.0947 E_long   = -17417958.8524 Press    =        45.4346 
Volume   =  19775932.4369 
---------------- Step      250 ----- CPU =     69.4545 (sec) ----------------
TotEng   =  -1597197.0506 KinEng   =   1381150.7798 Temp     =       300.9189 
PotEng   =  -2978347.8303 E_bond   =    162680.8673 E_angle  =    710413.3391 
E_dihed  =    335621.9727 E_impro  =     13602.0615 E_vdwl   =   -136269.8762 
E_coul   =  13354578.9156 E_long   = -17418975.1104 Press    =      -138.5563 
Volume   =  19801211.8549 
---------------- Step      300 ----- CPU =     83.0317 (sec) ----------------
TotEng   =  -1602550.2037 KinEng   =   1372896.7003 Temp     =       299.1206 
PotEng   =  -2975446.9040 E_bond   =    163837.9661 E_angle  =    698871.9398 
E_dihed  =    334181.0741 E_impro  =     14277.2276 E_vdwl   =   -143369.4029 
E_coul   =  13374219.3888 E_long   = -17417465.0976 Press    =      -415.9521 
Volume   =  19820479.3993 
---------------- Step      350 ----- CPU =     97.1805 (sec) ----------------
TotEng   =  -1612340.2410 KinEng   =   1378090.1065 Temp     =       300.2521 
PotEng   =  -2990430.3475 E_bond   =    164636.1600 E_angle  =    700458.7533 
E_dihed  =    336349.8323 E_impro  =     13330.8743 E_vdwl   =   -140164.0372 
E_coul   =  13352653.4832 E_long   = -17417695.4133 Press    =      -426.7277 
Volume   =  19828153.1706 
---------------- Step      400 ----- CPU =    111.3456 (sec) ----------------
TotEng   =  -1620763.5700 KinEng   =   1372306.1058 Temp     =       298.9919 
PotEng   =  -2993069.6758 E_bond   =    161976.5627 E_angle  =    698102.7308 
E_dihed  =    334775.0823 E_impro  =     14005.5060 E_vdwl   =   -132818.1882 
E_coul   =  13349247.4644 E_long   = -17418358.8336 Press    =       148.2756 
Volume   =  19826816.0674 
---------------- Step      450 ----- CPU =    125.5212 (sec) ----------------
TotEng   =  -1622179.1133 KinEng   =   1372874.2905 Temp     =       299.1157 
PotEng   =  -2995053.4038 E_bond   =    159564.6754 E_angle  =    697101.7507 
E_dihed  =    337144.4399 E_impro  =     14362.2423 E_vdwl   =   -135084.8317 
E_coul   =  13349445.9895 E_long   = -17417587.6698 Press    =       240.6242 
Volume   =  19824398.4559 
---------------- Step      500 ----- CPU =    139.4298 (sec) ----------------
TotEng   =  -1605826.6593 KinEng   =   1376213.1108 Temp     =       299.8431 
PotEng   =  -2982039.7701 E_bond   =    164800.2967 E_angle  =    697931.7101 
E_dihed  =    336781.1406 E_impro  =     14130.5742 E_vdwl   =   -133151.3928 
E_coul   =  13355038.7478 E_long   = -17417570.8468 Press    =      -164.0176 
Volume   =  19824355.1211 
---------------- Step      550 ----- CPU =    153.5992 (sec) ----------------
TotEng   =  -1589518.6344 KinEng   =   1387016.9210 Temp     =       302.1970 
PotEng   =  -2976535.5554 E_bond   =    162569.9752 E_angle  =    701312.6963 
E_dihed  =    333358.2172 E_impro  =     14831.5349 E_vdwl   =   -127160.5981 
E_coul   =  13356319.4298 E_long   = -17417766.8106 Press    =       426.1287 
Volume   =  19831340.5869 
---------------- Step      600 ----- CPU =    167.7630 (sec) ----------------
TotEng   =  -1589486.3386 KinEng   =   1388779.7090 Temp     =       302.5811 
PotEng   =  -2978266.0476 E_bond   =    163425.2962 E_angle  =    703890.1586 
E_dihed  =    336161.0332 E_impro  =     14120.2874 E_vdwl   =   -140455.9870 
E_coul   =  13362536.9832 E_long   = -17417943.8192 Press    =        22.5428 
Volume   =  19848923.4101 
---------------- Step      650 ----- CPU =    181.9395 (sec) ----------------
TotEng   =  -1604194.0946 KinEng   =   1378859.0330 Temp     =       300.4196 
PotEng   =  -2983053.1275 E_bond   =    161993.8648 E_angle  =    693336.4213 
E_dihed  =    336076.9481 E_impro  =     13657.0199 E_vdwl   =   -138883.5940 
E_coul   =  13368834.0716 E_long   = -17418067.8592 Press    =      -152.9772 
Volume   =  19862721.8172 
---------------- Step      700 ----- CPU =    196.1123 (sec) ----------------
TotEng   =  -1613399.5235 KinEng   =   1374535.9624 Temp     =       299.4777 
PotEng   =  -2987935.4859 E_bond   =    159826.7792 E_angle  =    698959.7279 
E_dihed  =    335371.5181 E_impro  =     13896.3978 E_vdwl   =   -139254.5006 
E_coul   =  13361393.4002 E_long   = -17418128.8084 Press    =       106.1018 
Volume   =  19872855.3648 
---------------- Step      750 ----- CPU =    209.9865 (sec) ----------------
TotEng   =  -1611934.3460 KinEng   =   1369883.7334 Temp     =       298.4641 
PotEng   =  -2981818.0794 E_bond   =    163165.0313 E_angle  =    704275.8329 
E_dihed  =    336999.4875 E_impro  =     13552.3084 E_vdwl   =   -134970.9665 
E_coul   =  13353372.7856 E_long   = -17418212.5588 Press    =       163.6746 
Volume   =  19877672.9732 
---------------- Step      800 ----- CPU =    224.1573 (sec) ----------------
TotEng   =  -1604973.2397 KinEng   =   1374970.2395 Temp     =       299.5724 
PotEng   =  -2979943.4792 E_bond   =    161639.5156 E_angle  =    705069.1782 
E_dihed  =    338065.4521 E_impro  =     14078.4679 E_vdwl   =   -134663.4239 
E_coul   =  13353546.6158 E_long   = -17417679.2849 Press    =        -5.8789 
Volume   =  19877944.0160 
---------------- Step      850 ----- CPU =    238.3314 (sec) ----------------
TotEng   =  -1596388.2646 KinEng   =   1380546.2957 Temp     =       300.7872 
PotEng   =  -2976934.5603 E_bond   =    162901.2747 E_angle  =    703119.5658 
E_dihed  =    337407.4437 E_impro  =     14021.3398 E_vdwl   =   -131066.9186 
E_coul   =  13354435.5728 E_long   = -17417752.8385 Press    =       102.3147 
Volume   =  19872340.3268 
---------------- Step      900 ----- CPU =    252.4913 (sec) ----------------
TotEng   =  -1593467.7989 KinEng   =   1380490.8171 Temp     =       300.7752 
PotEng   =  -2973958.6160 E_bond   =    162386.1077 E_angle  =    703335.9796 
E_dihed  =    338431.8326 E_impro  =     15056.4204 E_vdwl   =   -131583.5538 
E_coul   =  13356097.0639 E_long   = -17417682.4665 Press    =       152.3300 
Volume   =  19862277.4519 
---------------- Step      950 ----- CPU =    266.6675 (sec) ----------------
TotEng   =  -1597632.1216 KinEng   =   1376835.7031 Temp     =       299.9788 
PotEng   =  -2974467.8246 E_bond   =    163410.7054 E_angle  =    706254.0772 
E_dihed  =    337696.6439 E_impro  =     14906.0690 E_vdwl   =   -134026.1366 
E_coul   =  13354969.5643 E_long   = -17417678.7477 Press    =       -60.3315 
Volume   =  19850766.4060 
---------------- Step     1000 ----- CPU =    280.8644 (sec) ----------------
TotEng   =  -1606144.5648 KinEng   =   1375838.7521 Temp     =       299.7616 
PotEng   =  -2981983.3169 E_bond   =    163579.6806 E_angle  =    703769.1659 
E_dihed  =    335651.1662 E_impro  =     14003.4623 E_vdwl   =   -135968.1575 
E_coul   =  13354871.1833 E_long   = -17417889.8178 Press    =       -17.7708 
Volume   =  19841171.7921 
---------------- Step     1050 ----- CPU =    295.0491 (sec) ----------------
TotEng   =  -1611954.0309 KinEng   =   1374437.9780 Temp     =       299.4564 
PotEng   =  -2986392.0089 E_bond   =    162222.9134 E_angle  =    702185.2430 
E_dihed  =    335734.3539 E_impro  =     14235.1981 E_vdwl   =   -134543.3087 
E_coul   =  13351741.5257 E_long   = -17417967.9342 Press    =      -149.2204 
Volume   =  19833598.0175 
---------------- Step     1100 ----- CPU =    308.9275 (sec) ----------------
TotEng   =  -1611228.0839 KinEng   =   1373352.6455 Temp     =       299.2199 
PotEng   =  -2984580.7294 E_bond   =    163194.4419 E_angle  =    703764.5088 
E_dihed  =    336195.2823 E_impro  =     14624.2825 E_vdwl   =   -133254.7873 
E_coul   =  13349105.8692 E_long   = -17418210.3269 Press    =       114.6849 
Volume   =  19825752.1459 
---------------- Step     1150 ----- CPU =    323.1265 (sec) ----------------
TotEng   =  -1606670.5694 KinEng   =   1377530.7401 Temp     =       300.1302 
PotEng   =  -2984201.3095 E_bond   =    164410.4707 E_angle  =    701038.5125 
E_dihed  =    336875.9165 E_impro  =     14201.5693 E_vdwl   =   -132310.5689 
E_coul   =  13349588.7006 E_long   = -17418005.9102 Press    =       112.3851 
Volume   =  19818954.2038 
---------------- Step     1200 ----- CPU =    337.3255 (sec) ----------------
TotEng   =  -1602387.0204 KinEng   =   1378996.7236 Temp     =       300.4496 
PotEng   =  -2981383.7440 E_bond   =    164684.6567 E_angle  =    702085.1535 
E_dihed  =    336975.4875 E_impro  =     14434.9547 E_vdwl   =   -133781.5323 
E_coul   =  13352192.2667 E_long   = -17417974.7308 Press    =       -16.4223 
Volume   =  19814288.7300 
---------------- Step     1250 ----- CPU =    351.5236 (sec) ----------------
TotEng   =  -1601478.7462 KinEng   =   1377518.2565 Temp     =       300.1275 
PotEng   =  -2978997.0027 E_bond   =    164107.5149 E_angle  =    703946.8523 
E_dihed  =    336820.4384 E_impro  =     14305.3137 E_vdwl   =   -133204.7537 
E_coul   =  13353162.2816 E_long   = -17418134.6498 Press    =        91.8192 
Volume   =  19811590.5779 
---------------- Step     1300 ----- CPU =    365.4673 (sec) ----------------
TotEng   =  -1604199.7422 KinEng   =   1379527.8870 Temp     =       300.5654 
PotEng   =  -2983727.6293 E_bond   =    165073.8080 E_angle  =    701834.9929 
E_dihed  =    337364.1462 E_impro  =     14602.6629 E_vdwl   =   -136003.2021 
E_coul   =  13351609.5189 E_long   = -17418209.5560 Press    =      -130.6458 
Volume   =  19808795.9557 
---------------- Step     1350 ----- CPU =    379.6841 (sec) ----------------
TotEng   =  -1606810.6829 KinEng   =   1374834.0437 Temp     =       299.5427 
PotEng   =  -2981644.7266 E_bond   =    164448.6865 E_angle  =    703037.7520 
E_dihed  =    337039.8331 E_impro  =     14542.2291 E_vdwl   =   -133903.1485 
E_coul   =  13351095.6724 E_long   = -17417905.7513 Press    =       -49.5858 
Volume   =  19806258.6307 
---------------- Step     1400 ----- CPU =    393.8936 (sec) ----------------
TotEng   =  -1608468.5278 KinEng   =   1377037.7785 Temp     =       300.0228 
PotEng   =  -2985506.3063 E_bond   =    163617.6559 E_angle  =    702090.7096 
E_dihed  =    337111.9628 E_impro  =     14146.4870 E_vdwl   =   -133362.1642 
E_coul   =  13348963.3861 E_long   = -17418074.3435 Press    =        59.3920 
Volume   =  19803522.1932 
---------------- Step     1450 ----- CPU =    408.1183 (sec) ----------------
TotEng   =  -1607985.7810 KinEng   =   1375451.5634 Temp     =       299.6772 
PotEng   =  -2983437.3444 E_bond   =    164541.6765 E_angle  =    702821.1091 
E_dihed  =    337808.2517 E_impro  =     14247.0606 E_vdwl   =   -134271.9203 
E_coul   =  13349516.8425 E_long   = -17418100.3645 Press    =       -67.4184 
Volume   =  19801116.9496 
---------------- Step     1500 ----- CPU =    422.3390 (sec) ----------------
TotEng   =  -1605905.5563 KinEng   =   1377445.4510 Temp     =       300.1116 
PotEng   =  -2983351.0074 E_bond   =    164340.4142 E_angle  =    702402.3629 
E_dihed  =    337251.9280 E_impro  =     14491.0771 E_vdwl   =   -134077.9641 
E_coul   =  13350299.5785 E_long   = -17418058.4038 Press    =       -35.6882 
Volume   =  19800342.7065 
---------------- Step     1550 ----- CPU =    436.2702 (sec) ----------------
TotEng   =  -1604077.0375 KinEng   =   1378354.2354 Temp     =       300.3096 
PotEng   =  -2982431.2729 E_bond   =    163295.6022 E_angle  =    705577.6623 
E_dihed  =    337411.4252 E_impro  =     14564.4563 E_vdwl   =   -134082.9862 
E_coul   =  13348882.9580 E_long   = -17418080.3907 Press    =         5.0933 
Volume   =  19801375.7314 
---------------- Step     1600 ----- CPU =    450.4799 (sec) ----------------
TotEng   =  -1604965.7631 KinEng   =   1378944.2073 Temp     =       300.4382 
PotEng   =  -2983909.9703 E_bond   =    163640.1349 E_angle  =    702502.6319 
E_dihed  =    337183.7890 E_impro  =     13937.0961 E_vdwl   =   -132917.8774 
E_coul   =  13349823.6264 E_long   = -17418079.3712 Press    =        79.2325 
Volume   =  19802865.9292 
---------------- Step     1650 ----- CPU =    464.7095 (sec) ----------------
TotEng   =  -1607576.0861 KinEng   =   1376432.0694 Temp     =       299.8909 
PotEng   =  -2984008.1555 E_bond   =    164505.5098 E_angle  =    703435.5428 
E_dihed  =    337225.9920 E_impro  =     14242.7069 E_vdwl   =   -134872.2873 
E_coul   =  13349556.3583 E_long   = -17418101.9779 Press    =       -36.8722 
Volume   =  19804079.3739 
---------------- Step     1700 ----- CPU =    478.9239 (sec) ----------------
TotEng   =  -1609846.0561 KinEng   =   1376156.0145 Temp     =       299.8307 
PotEng   =  -2986002.0707 E_bond   =    163220.8719 E_angle  =    704075.7288 
E_dihed  =    336847.4696 E_impro  =     14349.5135 E_vdwl   =   -134217.5583 
E_coul   =  13347836.9029 E_long   = -17418114.9989 Press    =        77.3047 
Volume   =  19804561.9107 
---------------- Step     1750 ----- CPU =    493.1342 (sec) ----------------
TotEng   =  -1609869.4105 KinEng   =   1376535.2961 Temp     =       299.9133 
PotEng   =  -2986404.7065 E_bond   =    163649.6216 E_angle  =    703873.9662 
E_dihed  =    336597.5159 E_impro  =     14325.4265 E_vdwl   =   -133790.0513 
E_coul   =  13347041.1044 E_long   = -17418102.2899 Press    =       -11.1968 
Volume   =  19805553.4049 
---------------- Step     1800 ----- CPU =    507.3668 (sec) ----------------
TotEng   =  -1608465.5504 KinEng   =   1375357.5385 Temp     =       299.6567 
PotEng   =  -2983823.0888 E_bond   =    164422.1627 E_angle  =    704009.7747 
E_dihed  =    337267.3058 E_impro  =     14469.7647 E_vdwl   =   -133273.7458 
E_coul   =  13347252.7255 E_long   = -17417971.0765 Press    =      -119.8126 
Volume   =  19806998.2426 
---------------- Step     1850 ----- CPU =    521.3036 (sec) ----------------
TotEng   =  -1606685.5505 KinEng   =   1377482.8532 Temp     =       300.1198 
PotEng   =  -2984168.4037 E_bond   =    164717.1922 E_angle  =    704872.8095 
E_dihed  =    337022.1671 E_impro  =     14238.5031 E_vdwl   =   -134928.8629 
E_coul   =  13348018.9593 E_long   = -17418109.1720 Press    =       -23.5371 
Volume   =  19807406.8697 
---------------- Step     1900 ----- CPU =    535.5233 (sec) ----------------
TotEng   =  -1605672.6746 KinEng   =   1377836.7965 Temp     =       300.1969 
PotEng   =  -2983509.4711 E_bond   =    164093.0124 E_angle  =    704848.0611 
E_dihed  =    337346.6309 E_impro  =     14459.2106 E_vdwl   =   -133757.7945 
E_coul   =  13347633.8825 E_long   = -17418132.4740 Press    =       -14.2512 
Volume   =  19805213.1375 
---------------- Step     1950 ----- CPU =    549.7336 (sec) ----------------
TotEng   =  -1606604.4510 KinEng   =   1378447.8239 Temp     =       300.3300 
PotEng   =  -2985052.2749 E_bond   =    163035.7123 E_angle  =    704846.6562 
E_dihed  =    337106.6348 E_impro  =     14304.2067 E_vdwl   =   -132634.8770 
E_coul   =  13346545.2901 E_long   = -17418255.8980 Press    =       -29.9830 
Volume   =  19803604.3770 
---------------- Step     2000 ----- CPU =    563.6692 (sec) ----------------
TotEng   =  -1608853.5125 KinEng   =   1376633.9122 Temp     =       299.9348 
PotEng   =  -2985487.4247 E_bond   =    164399.6263 E_angle  =    704611.1672 
E_dihed  =    337107.9227 E_impro  =     14201.8248 E_vdwl   =   -136800.1700 
E_coul   =  13349137.5825 E_long   = -17418145.3782 Press    =       -81.6115 
Volume   =  19802561.9369 
---------------- Step     2050 ----- CPU =    577.8981 (sec) ----------------
TotEng   =  -1609751.9355 KinEng   =   1375112.0476 Temp     =       299.6033 
PotEng   =  -2984863.9831 E_bond   =    163674.1048 E_angle  =    705537.2896 
E_dihed  =    337405.5509 E_impro  =     14488.8364 E_vdwl   =   -135351.6595 
E_coul   =  13347627.0432 E_long   = -17418245.1485 Press    =       -19.2148 
Volume   =  19800449.0423 
---------------- Step     2100 ----- CPU =    591.8238 (sec) ----------------
TotEng   =  -1608957.9790 KinEng   =   1376550.9999 Temp     =       299.9168 
PotEng   =  -2985508.9788 E_bond   =    164476.4470 E_angle  =    704038.3581 
E_dihed  =    337432.7704 E_impro  =     14442.7704 E_vdwl   =   -133911.6886 
E_coul   =  13346223.4254 E_long   = -17418211.0615 Press    =         2.3043 
Volume   =  19797478.1951 
---------------- Step     2150 ----- CPU =    606.0598 (sec) ----------------
TotEng   =  -1608174.8766 KinEng   =   1378395.1363 Temp     =       300.3186 
PotEng   =  -2986570.0129 E_bond   =    164161.7977 E_angle  =    704524.2038 
E_dihed  =    336929.5815 E_impro  =     14386.4694 E_vdwl   =   -134554.0774 
E_coul   =  13346195.8403 E_long   = -17418213.8282 Press    =       -59.5912 
Volume   =  19795005.6788 
---------------- Step     2200 ----- CPU =    620.2734 (sec) ----------------
TotEng   =  -1608658.1150 KinEng   =   1376950.5576 Temp     =       300.0038 
PotEng   =  -2985608.6726 E_bond   =    165184.7126 E_angle  =    704955.1229 
E_dihed  =    336943.8259 E_impro  =     14312.6616 E_vdwl   =   -132726.6917 
E_coul   =  13343866.0412 E_long   = -17418144.3452 Press    =      -108.1735 
Volume   =  19792803.3280 
---------------- Step     2250 ----- CPU =    634.2060 (sec) ----------------
TotEng   =  -1609359.2580 KinEng   =   1376995.4869 Temp     =       300.0136 
PotEng   =  -2986354.7448 E_bond   =    164813.5486 E_angle  =    704366.2493 
E_dihed  =    336928.2010 E_impro  =     14293.4335 E_vdwl   =   -133078.1362 
E_coul   =  13344404.7634 E_long   = -17418082.8046 Press    =        33.7574 
Volume   =  19791270.0365 
---------------- Step     2300 ----- CPU =    648.1440 (sec) ----------------
TotEng   =  -1609794.8182 KinEng   =   1376163.4392 Temp     =       299.8323 
PotEng   =  -2985958.2573 E_bond   =    164416.5975 E_angle  =    704075.8041 
E_dihed  =    337027.5547 E_impro  =     14344.9799 E_vdwl   =   -133812.6391 
E_coul   =  13346032.3317 E_long   = -17418042.8862 Press    =       -16.8706 
Volume   =  19790471.7453 
---------------- Step     2350 ----- CPU =    662.3814 (sec) ----------------
TotEng   =  -1609325.8582 KinEng   =   1377911.6651 Temp     =       300.2132 
PotEng   =  -2987237.5232 E_bond   =    164377.2487 E_angle  =    705208.6490 
E_dihed  =    336841.4531 E_impro  =     14448.9748 E_vdwl   =   -133064.6611 
E_coul   =  13343091.9509 E_long   = -17418141.1387 Press    =       -42.6344 
Volume   =  19790574.2842 
---------------- Step     2400 ----- CPU =    676.6144 (sec) ----------------
TotEng   =  -1608950.8450 KinEng   =   1377214.6553 Temp     =       300.0614 
PotEng   =  -2986165.5004 E_bond   =    164442.5119 E_angle  =    705523.0030 
E_dihed  =    336895.0791 E_impro  =     14614.2962 E_vdwl   =   -133908.4412 
E_coul   =  13344379.5776 E_long   = -17418111.5269 Press    =       -22.6121 
Volume   =  19791027.8826 
---------------- Step     2450 ----- CPU =    690.8345 (sec) ----------------
TotEng   =  -1608804.5099 KinEng   =   1377927.8793 Temp     =       300.2168 
PotEng   =  -2986732.3892 E_bond   =    164647.7420 E_angle  =    704368.2873 
E_dihed  =    336896.4778 E_impro  =     14345.0781 E_vdwl   =   -133339.3647 
E_coul   =  13344549.8497 E_long   = -17418200.4595 Press    =       -12.2083 
Volume   =  19791624.8147 
---------------- Step     2500 ----- CPU =    704.7929 (sec) ----------------
TotEng   =  -1609284.5962 KinEng   =   1376787.0905 Temp     =       299.9682 
PotEng   =  -2986071.6867 E_bond   =    164750.1043 E_angle  =    705521.9482 
E_dihed  =    336819.6966 E_impro  =     14432.8283 E_vdwl   =   -133840.6176 
E_coul   =  13344418.9626 E_long   = -17418174.6091 Press    =       -45.4241 
Volume   =  19792034.4058 
---------------- Step     2550 ----- CPU =    719.0491 (sec) ----------------
TotEng   =  -1609644.8059 KinEng   =   1377094.5363 Temp     =       300.0352 
PotEng   =  -2986739.3422 E_bond   =    164892.2716 E_angle  =    705293.0208 
E_dihed  =    336842.3857 E_impro  =     14292.9000 E_vdwl   =   -134317.1168 
E_coul   =  13344473.9537 E_long   = -17418216.7572 Press    =       -84.1357 
Volume   =  19791127.4988 
---------------- Step     2600 ----- CPU =    733.0205 (sec) ----------------
TotEng   =  -1609435.8958 KinEng   =   1377028.9496 Temp     =       300.0209 
PotEng   =  -2986464.8454 E_bond   =    164585.2956 E_angle  =    704714.6354 
E_dihed  =    336630.3982 E_impro  =     14226.4273 E_vdwl   =   -134008.1201 
E_coul   =  13345439.7211 E_long   = -17418053.2030 Press    =       -71.6232 
Volume   =  19789260.3747 
---------------- Step     2650 ----- CPU =    747.2791 (sec) ----------------
TotEng   =  -1609194.3644 KinEng   =   1378205.4071 Temp     =       300.2772 
PotEng   =  -2987399.7715 E_bond   =    164403.7305 E_angle  =    704969.3897 
E_dihed  =    337179.3117 E_impro  =     14244.1636 E_vdwl   =   -135446.1058 
E_coul   =  13345366.1881 E_long   = -17418116.4494 Press    =       -64.0378 
Volume   =  19787425.0799 
---------------- Step     2700 ----- CPU =    761.5581 (sec) ----------------
TotEng   =  -1609547.2696 KinEng   =   1376347.3019 Temp     =       299.8724 
PotEng   =  -2985894.5715 E_bond   =    164565.1559 E_angle  =    706246.3652 
E_dihed  =    336831.6330 E_impro  =     14386.8387 E_vdwl   =   -134010.5139 
E_coul   =  13344221.9101 E_long   = -17418135.9606 Press    =       -14.4688 
Volume   =  19784128.0255 
---------------- Step     2750 ----- CPU =    775.8223 (sec) ----------------
TotEng   =  -1610361.8781 KinEng   =   1377573.3346 Temp     =       300.1395 
PotEng   =  -2987935.2126 E_bond   =    164313.0308 E_angle  =    705701.9409 
E_dihed  =    337073.5542 E_impro  =     14323.4652 E_vdwl   =   -132556.0646 
E_coul   =  13341485.1225 E_long   = -17418276.2616 Press    =        50.3245 
Volume   =  19781373.2928 
---------------- Step     2800 ----- CPU =    790.0703 (sec) ----------------
TotEng   =  -1611261.7321 KinEng   =   1376625.2129 Temp     =       299.9329 
PotEng   =  -2987886.9450 E_bond   =    164477.8618 E_angle  =    705599.8328 
E_dihed  =    336859.6050 E_impro  =     14407.9788 E_vdwl   =   -134321.9250 
E_coul   =  13343266.0967 E_long   = -17418176.3950 Press    =       -14.0217 
Volume   =  19779487.8624 
---------------- Step     2850 ----- CPU =    804.3333 (sec) ----------------
TotEng   =  -1611665.3418 KinEng   =   1376347.0852 Temp     =       299.8723 
PotEng   =  -2988012.4270 E_bond   =    164628.4015 E_angle  =    705613.9197 
E_dihed  =    336874.4951 E_impro  =     14379.4687 E_vdwl   =   -133252.6383 
E_coul   =  13341959.0067 E_long   = -17418215.0804 Press    =       -13.5304 
Volume   =  19779085.6382 
---------------- Step     2900 ----- CPU =    818.5923 (sec) ----------------
TotEng   =  -1610975.6257 KinEng   =   1377473.7748 Temp     =       300.1178 
PotEng   =  -2988449.4005 E_bond   =    164530.9175 E_angle  =    705148.6468 
E_dihed  =    337303.0807 E_impro  =     14442.6587 E_vdwl   =   -133476.3882 
E_coul   =  13341773.0902 E_long   = -17418171.4061 Press    =         5.2903 
Volume   =  19780295.2812 
---------------- Step     2950 ----- CPU =    832.5690 (sec) ----------------
TotEng   =  -1610252.3069 KinEng   =   1376457.7589 Temp     =       299.8964 
PotEng   =  -2986710.0658 E_bond   =    164843.1827 E_angle  =    705394.4904 
E_dihed  =    337129.5539 E_impro  =     14482.9109 E_vdwl   =   -133966.7336 
E_coul   =  13343552.8754 E_long   = -17418146.3456 Press    =       -30.8657 
Volume   =  19781747.4289 
---------------- Step     3000 ----- CPU =    846.8202 (sec) ----------------
TotEng   =  -1609119.1491 KinEng   =   1377451.1431 Temp     =       300.1129 
PotEng   =  -2986570.2922 E_bond   =    164454.7068 E_angle  =    706870.3035 
E_dihed  =    336611.6003 E_impro  =     14451.4784 E_vdwl   =   -133505.6008 
E_coul   =  13342850.0462 E_long   = -17418302.8265 Press    =       -29.8248 
Volume   =  19783091.7836 
---------------- Step     3050 ----- CPU =    861.0892 (sec) ----------------
TotEng   =  -1609266.4041 KinEng   =   1376844.1798 Temp     =       299.9806 
PotEng   =  -2986110.5838 E_bond   =    164294.6898 E_angle  =    706827.2918 
E_dihed  =    336682.0495 E_impro  =     14253.4789 E_vdwl   =   -133078.0346 
E_coul   =  13343150.8463 E_long   = -17418240.9055 Press    =       -34.9219 
Volume   =  19783398.7551 
---------------- Step     3100 ----- CPU =    875.0525 (sec) ----------------
TotEng   =  -1610120.6678 KinEng   =   1376196.9799 Temp     =       299.8396 
PotEng   =  -2986317.6477 E_bond   =    164774.5558 E_angle  =    706577.3404 
E_dihed  =    336272.5927 E_impro  =     14358.7842 E_vdwl   =   -133351.6591 
E_coul   =  13343265.8539 E_long   = -17418215.1156 Press    =       -56.4873 
Volume   =  19783104.3303 
---------------- Step     3150 ----- CPU =    889.3051 (sec) ----------------
TotEng   =  -1610945.6412 KinEng   =   1377612.8008 Temp     =       300.1481 
PotEng   =  -2988558.4419 E_bond   =    164002.2583 E_angle  =    705770.2514 
E_dihed  =    336742.3785 E_impro  =     14417.0335 E_vdwl   =   -134390.9545 
E_coul   =  13343165.0169 E_long   = -17418264.4261 Press    =       -16.3877 
Volume   =  19782637.0091 
---------------- Step     3200 ----- CPU =    903.5614 (sec) ----------------
TotEng   =  -1611282.0147 KinEng   =   1376554.6510 Temp     =       299.9176 
PotEng   =  -2987836.6656 E_bond   =    164865.6680 E_angle  =    706008.0739 
E_dihed  =    336568.6580 E_impro  =     14489.1313 E_vdwl   =   -131926.1248 
E_coul   =  13340243.5886 E_long   = -17418085.6608 Press    =        17.7894 
Volume   =  19781453.0776 
---------------- Step     3250 ----- CPU =    917.5208 (sec) ----------------
TotEng   =  -1611146.5710 KinEng   =   1376337.7267 Temp     =       299.8703 
PotEng   =  -2987484.2976 E_bond   =    165106.2147 E_angle  =    705769.6532 
E_dihed  =    337162.4214 E_impro  =     14349.6302 E_vdwl   =   -133186.6792 
E_coul   =  13341593.3332 E_long   = -17418278.8712 Press    =       -28.7186 
Volume   =  19780072.1106 
---------------- Step     3300 ----- CPU =    931.7750 (sec) ----------------
TotEng   =  -1611203.0802 KinEng   =   1377046.6988 Temp     =       300.0248 
PotEng   =  -2988249.7790 E_bond   =    164358.5094 E_angle  =    705833.7703 
E_dihed  =    336669.9524 E_impro  =     14507.6146 E_vdwl   =   -133175.8728 
E_coul   =  13341822.9978 E_long   = -17418266.7506 Press    =        -6.9654 
Volume   =  19778979.8749 
---------------- Step     3350 ----- CPU =    945.7373 (sec) ----------------
TotEng   =  -1611263.1177 KinEng   =   1377642.0692 Temp     =       300.1545 
PotEng   =  -2988905.1869 E_bond   =    164261.8303 E_angle  =    705909.8899 
E_dihed  =    337152.2861 E_impro  =     14237.3849 E_vdwl   =   -132144.0944 
E_coul   =  13340044.0996 E_long   = -17418366.5832 Press    =         9.0408 
Volume   =  19778491.7411 
---------------- Step     3400 ----- CPU =    960.0006 (sec) ----------------
TotEng   =  -1611623.3805 KinEng   =   1377021.4914 Temp     =       300.0193 
PotEng   =  -2988644.8719 E_bond   =    165062.6704 E_angle  =    706885.5677 
E_dihed  =    337168.4169 E_impro  =     14419.3428 E_vdwl   =   -132401.6064 
E_coul   =  13338527.1525 E_long   = -17418306.4158 Press    =       -28.9377 
Volume   =  19779165.4558 
---------------- Step     3450 ----- CPU =    974.2401 (sec) ----------------
TotEng   =  -1612169.7496 KinEng   =   1377341.4183 Temp     =       300.0890 
PotEng   =  -2989511.1679 E_bond   =    164723.9385 E_angle  =    705979.1752 
E_dihed  =    336985.3146 E_impro  =     14453.5955 E_vdwl   =   -131959.0565 
E_coul   =  13338575.7382 E_long   = -17418269.8734 Press    =       -11.5779 
Volume   =  19780269.6132 
---------------- Step     3500 ----- CPU =    988.2082 (sec) ----------------
TotEng   =  -1612311.8010 KinEng   =   1375298.9842 Temp     =       299.6440 
PotEng   =  -2987610.7852 E_bond   =    165344.4975 E_angle  =    706722.1942 
E_dihed  =    336597.3781 E_impro  =     14318.6819 E_vdwl   =   -131828.1290 
E_coul   =  13339433.8551 E_long   = -17418199.2631 Press    =        -0.0235 
Volume   =  19781973.9683 
---------------- Step     3550 ----- CPU =   1002.4526 (sec) ----------------
TotEng   =  -1612416.2977 KinEng   =   1377190.5378 Temp     =       300.0561 
PotEng   =  -2989606.8355 E_bond   =    165117.6919 E_angle  =    705633.3379 
E_dihed  =    336967.6223 E_impro  =     14423.5967 E_vdwl   =   -132313.4818 
E_coul   =  13338863.0674 E_long   = -17418298.6699 Press    =       -29.1212 
Volume   =  19783048.5331 
---------------- Step     3600 ----- CPU =   1016.4238 (sec) ----------------
TotEng   =  -1612335.4643 KinEng   =   1376936.8218 Temp     =       300.0008 
PotEng   =  -2989272.2861 E_bond   =    164449.4695 E_angle  =    706854.7105 
E_dihed  =    336993.8057 E_impro  =     14435.3803 E_vdwl   =   -133226.2046 
E_coul   =  13339425.4338 E_long   = -17418204.8813 Press    =       -76.5801 
Volume   =  19782874.2761 
---------------- Step     3650 ----- CPU =   1030.6728 (sec) ----------------
TotEng   =  -1611649.5521 KinEng   =   1377610.3857 Temp     =       300.1476 
PotEng   =  -2989259.9378 E_bond   =    165175.4287 E_angle  =    706252.1417 
E_dihed  =    336541.0151 E_impro  =     14415.3222 E_vdwl   =   -133954.0430 
E_coul   =  13340442.7614 E_long   = -17418132.5638 Press    =        23.7901 
Volume   =  19781092.4328 
---------------- Step     3700 ----- CPU =   1044.9381 (sec) ----------------
TotEng   =  -1611633.4459 KinEng   =   1378031.8446 Temp     =       300.2394 
PotEng   =  -2989665.2906 E_bond   =    165469.2898 E_angle  =    706705.5470 
E_dihed  =    336568.1522 E_impro  =     14451.1112 E_vdwl   =   -131891.7737 
E_coul   =  13337222.2664 E_long   = -17418189.8835 Press    =       -47.3278 
Volume   =  19779064.0437 
---------------- Step     3750 ----- CPU =   1058.9144 (sec) ----------------
TotEng   =  -1612901.9222 KinEng   =   1376166.3415 Temp     =       299.8330 
PotEng   =  -2989068.2638 E_bond   =    164644.3880 E_angle  =    707593.8786 
E_dihed  =    336708.4263 E_impro  =     14439.6632 E_vdwl   =   -131398.8158 
E_coul   =  13337227.7286 E_long   = -17418283.5326 Press    =        -7.6855 
Volume   =  19776943.3187 
---------------- Step     3800 ----- CPU =   1073.1705 (sec) ----------------
TotEng   =  -1614448.9602 KinEng   =   1377174.1972 Temp     =       300.0525 
PotEng   =  -2991623.1573 E_bond   =    164748.3904 E_angle  =    705655.3053 
E_dihed  =    336347.2008 E_impro  =     14345.6373 E_vdwl   =   -131023.2323 
E_coul   =  13336491.1157 E_long   = -17418187.5746 Press    =         9.2822 
Volume   =  19774694.9516 
---------------- Step     3850 ----- CPU =   1087.4346 (sec) ----------------
TotEng   =  -1614718.6363 KinEng   =   1375632.5633 Temp     =       299.7167 
PotEng   =  -2990351.1996 E_bond   =    165156.0380 E_angle  =    706865.8608 
E_dihed  =    336670.4429 E_impro  =     14381.7463 E_vdwl   =   -133208.5689 
E_coul   =  13337975.3048 E_long   = -17418192.0234 Press    =       -19.2478 
Volume   =  19774615.1158 
---------------- Step     3900 ----- CPU =   1101.6969 (sec) ----------------
TotEng   =  -1613186.2028 KinEng   =   1375816.8447 Temp     =       299.7568 
PotEng   =  -2989003.0476 E_bond   =    165365.5539 E_angle  =    707279.5719 
E_dihed  =    336652.4618 E_impro  =     14296.0899 E_vdwl   =   -132719.1348 
E_coul   =  13338369.2700 E_long   = -17418246.8602 Press    =       -12.3302 
Volume   =  19775723.4708 
---------------- Step     3950 ----- CPU =   1115.6565 (sec) ----------------
TotEng   =  -1610689.9871 KinEng   =   1378459.1083 Temp     =       300.3325 
PotEng   =  -2989149.0954 E_bond   =    165041.1226 E_angle  =    707265.6280 
E_dihed  =    336539.1594 E_impro  =     14403.8646 E_vdwl   =   -131054.4881 
E_coul   =  13336879.1545 E_long   = -17418223.5366 Press    =        -5.8193 
Volume   =  19777503.3589 
---------------- Step     4000 ----- CPU =   1129.8989 (sec) ----------------
TotEng   =  -1609655.6161 KinEng   =   1378781.9866 Temp     =       300.4028 
PotEng   =  -2988437.6027 E_bond   =    164775.5340 E_angle  =    707756.8887 
E_dihed  =    337100.5326 E_impro  =     14428.9384 E_vdwl   =   -132104.7523 
E_coul   =  13337793.7068 E_long   = -17418188.4509 Press    =       -27.4322 
Volume   =  19780233.2640 
---------------- Step     4050 ----- CPU =   1143.8498 (sec) ----------------
TotEng   =  -1610458.0099 KinEng   =   1377662.2614 Temp     =       300.1589 
PotEng   =  -2988120.2713 E_bond   =    165165.9187 E_angle  =    707628.0278 
E_dihed  =    336611.3001 E_impro  =     14481.8251 E_vdwl   =   -133358.4246 
E_coul   =  13339614.1890 E_long   = -17418263.1075 Press    =       -26.7295 
Volume   =  19782803.3069 
---------------- Step     4100 ----- CPU =   1158.1020 (sec) ----------------
TotEng   =  -1612789.0934 KinEng   =   1377210.4915 Temp     =       300.0605 
PotEng   =  -2989999.5849 E_bond   =    164985.1106 E_angle  =    707313.1940 
E_dihed  =    336738.6233 E_impro  =     14274.3450 E_vdwl   =   -134220.5934 
E_coul   =  13339095.7599 E_long   = -17418186.0244 Press    =       -45.4430 
Volume   =  19784318.8681 
---------------- Step     4150 ----- CPU =   1172.3591 (sec) ----------------
TotEng   =  -1614646.9825 KinEng   =   1374903.0747 Temp     =       299.5577 
PotEng   =  -2989550.0572 E_bond   =    165311.9739 E_angle  =    707025.4420 
E_dihed  =    336853.2078 E_impro  =     14415.8062 E_vdwl   =   -133304.6012 
E_coul   =  13338411.4453 E_long   = -17418263.3312 Press    =       -64.5118 
Volume   =  19784398.8246 
---------------- Step     4200 ----- CPU =   1186.3437 (sec) ----------------
TotEng   =  -1613790.3504 KinEng   =   1376186.1128 Temp     =       299.8373 
PotEng   =  -2989976.4631 E_bond   =    164798.9134 E_angle  =    706451.6390 
E_dihed  =    336729.2339 E_impro  =     14465.9105 E_vdwl   =   -132053.1257 
E_coul   =  13337846.8388 E_long   = -17418215.8731 Press    =        28.8613 
Volume   =  19783682.3915 
---------------- Step     4250 ----- CPU =   1200.6053 (sec) ----------------
TotEng   =  -1611338.7685 KinEng   =   1375773.7528 Temp     =       299.7474 
PotEng   =  -2987112.5214 E_bond   =    165912.1229 E_angle  =    709322.5753 
E_dihed  =    336565.8574 E_impro  =     14448.0379 E_vdwl   =   -133097.2462 
E_coul   =  13338064.0328 E_long   = -17418327.9015 Press    =       -26.9984 
Volume   =  19782572.0917 
---------------- Step     4300 ----- CPU =   1214.5654 (sec) ----------------
TotEng   =  -1610038.2037 KinEng   =   1378891.3503 Temp     =       300.4267 
PotEng   =  -2988929.5541 E_bond   =    165328.2635 E_angle  =    707802.0190 
E_dihed  =    337181.7065 E_impro  =     14429.8326 E_vdwl   =   -131522.2938 
E_coul   =  13336242.1971 E_long   = -17418391.2790 Press    =        33.9076 
Volume   =  19780721.4718 
---------------- Step     4350 ----- CPU =   1228.8189 (sec) ----------------
TotEng   =  -1611357.2741 KinEng   =   1378797.1221 Temp     =       300.4061 
PotEng   =  -2990154.3963 E_bond   =    165565.1171 E_angle  =    707250.5302 
E_dihed  =    337059.5338 E_impro  =     14510.0597 E_vdwl   =   -132827.1926 
E_coul   =  13336562.8617 E_long   = -17418275.3062 Press    =       -77.6121 
Volume   =  19780132.1690 
---------------- Step     4400 ----- CPU =   1243.0796 (sec) ----------------
TotEng   =  -1613952.2056 KinEng   =   1375095.8137 Temp     =       299.5997 
PotEng   =  -2989048.0193 E_bond   =    165473.6353 E_angle  =    708793.4842 
E_dihed  =    336508.5341 E_impro  =     14353.9679 E_vdwl   =   -134749.1394 
E_coul   =  13338730.2951 E_long   = -17418158.7965 Press    =       -50.6653 
Volume   =  19778725.0426 
---------------- Step     4450 ----- CPU =   1257.0368 (sec) ----------------
TotEng   =  -1614934.8365 KinEng   =   1375956.1811 Temp     =       299.7872 
PotEng   =  -2990891.0175 E_bond   =    164579.5023 E_angle  =    708169.1357 
E_dihed  =    336426.2822 E_impro  =     14371.1998 E_vdwl   =   -132276.0141 
E_coul   =  13336089.8536 E_long   = -17418250.9769 Press    =        32.8114 
Volume   =  19775883.5818 
---------------- Step     4500 ----- CPU =   1271.2877 (sec) ----------------
TotEng   =  -1614200.3963 KinEng   =   1376144.9253 Temp     =       299.8283 
PotEng   =  -2990345.3215 E_bond   =    165144.6038 E_angle  =    707669.4671 
E_dihed  =    336868.7869 E_impro  =     14324.9090 E_vdwl   =   -132239.5111 
E_coul   =  13336178.7891 E_long   = -17418292.3663 Press    =       -25.1839 
Volume   =  19774118.4134 
---------------- Step     4550 ----- CPU =   1285.2506 (sec) ----------------
TotEng   =  -1612947.5324 KinEng   =   1376786.8477 Temp     =       299.9681 
PotEng   =  -2989734.3801 E_bond   =    165106.2415 E_angle  =    708785.2021 
E_dihed  =    336878.7860 E_impro  =     14256.5297 E_vdwl   =   -131287.5456 
E_coul   =  13334744.4325 E_long   = -17418218.0263 Press    =        15.1583 
Volume   =  19771596.4136 
---------------- Step     4600 ----- CPU =   1299.5086 (sec) ----------------
TotEng   =  -1613101.3841 KinEng   =   1377625.7795 Temp     =       300.1509 
PotEng   =  -2990727.1636 E_bond   =    165496.3424 E_angle  =    707518.2125 
E_dihed  =    337165.5032 E_impro  =     14344.1093 E_vdwl   =   -131931.5051 
E_coul   =  13334989.0121 E_long   = -17418308.8379 Press    =       -38.3989 
Volume   =  19770410.1970 
---------------- Step     4650 ----- CPU =   1313.7480 (sec) ----------------
TotEng   =  -1614555.3472 KinEng   =   1376934.0877 Temp     =       300.0002 
PotEng   =  -2991489.4350 E_bond   =    164865.1890 E_angle  =    707895.5335 
E_dihed  =    336749.3293 E_impro  =     14465.5896 E_vdwl   =   -131633.6734 
E_coul   =  13334562.0583 E_long   = -17418393.4613 Press    =       -17.1256 
Volume   =  19769127.3295 
---------------- Step     4700 ----- CPU =   1327.7139 (sec) ----------------
TotEng   =  -1615553.4760 KinEng   =   1377185.1621 Temp     =       300.0549 
PotEng   =  -2992738.6381 E_bond   =    165185.0995 E_angle  =    707348.7378 
E_dihed  =    336617.4323 E_impro  =     14340.0328 E_vdwl   =   -131657.5024 
E_coul   =  13333731.7991 E_long   = -17418304.2372 Press    =         7.6960 
Volume   =  19768100.1475 
---------------- Step     4750 ----- CPU =   1341.9596 (sec) ----------------
TotEng   =  -1615904.4819 KinEng   =   1376381.9740 Temp     =       299.8799 
PotEng   =  -2992286.4560 E_bond   =    165889.6671 E_angle  =    706803.8723 
E_dihed  =    336741.9151 E_impro  =     14289.3748 E_vdwl   =   -133107.6107 
E_coul   =  13335439.1691 E_long   = -17418342.8437 Press    =       -36.8513 
Volume   =  19768319.3857 
---------------- Step     4800 ----- CPU =   1355.9190 (sec) ----------------
TotEng   =  -1615290.0205 KinEng   =   1377599.2949 Temp     =       300.1452 
PotEng   =  -2992889.3153 E_bond   =    165279.3435 E_angle  =    707077.8414 
E_dihed  =    336991.2530 E_impro  =     14268.5209 E_vdwl   =   -132293.9133 
E_coul   =  13334044.6967 E_long   = -17418257.0575 Press    =       -50.1777 
Volume   =  19767735.5672 
---------------- Step     4850 ----- CPU =   1370.1703 (sec) ----------------
TotEng   =  -1614243.0211 KinEng   =   1376890.4885 Temp     =       299.9907 
PotEng   =  -2991133.5096 E_bond   =    165125.0882 E_angle  =    708663.5779 
E_dihed  =    337006.0162 E_impro  =     14437.2067 E_vdwl   =   -133614.8215 
E_coul   =  13335435.1757 E_long   = -17418185.7526 Press    =       -30.1767 
Volume   =  19765810.9041 
---------------- Step     4900 ----- CPU =   1384.1517 (sec) ----------------
TotEng   =  -1613423.4637 KinEng   =   1378383.8471 Temp     =       300.3161 
PotEng   =  -2991807.3108 E_bond   =    165729.4821 E_angle  =    708345.2521 
E_dihed  =    336767.4942 E_impro  =     14278.5172 E_vdwl   =   -132137.6694 
E_coul   =  13333536.7257 E_long   = -17418327.1127 Press    =       -49.4747 
Volume   =  19763666.7457 
---------------- Step     4950 ----- CPU =   1398.4103 (sec) ----------------
TotEng   =  -1613314.0849 KinEng   =   1377407.1402 Temp     =       300.1033 
PotEng   =  -2990721.2251 E_bond   =    165821.1078 E_angle  =    707587.9375 
E_dihed  =    337362.3330 E_impro  =     14481.5730 E_vdwl   =   -132458.5799 
E_coul   =  13334792.3270 E_long   = -17418307.9235 Press    =        -9.4581 
Volume   =  19761073.5535 
---------------- Step     5000 ----- CPU =   1412.3744 (sec) ----------------
TotEng   =  -1614356.9069 KinEng   =   1377013.6300 Temp     =       300.0176 
PotEng   =  -2991370.5369 E_bond   =    165850.4358 E_angle  =    708738.2947 
E_dihed  =    336698.4345 E_impro  =     14334.3828 E_vdwl   =   -132210.2046 
E_coul   =  13333458.1741 E_long   = -17418240.0542 Press    =       -38.6809 
Volume   =  19759652.1301 
---------------- Step     5050 ----- CPU =   1426.6226 (sec) ----------------
TotEng   =  -1616016.7307 KinEng   =   1376668.3356 Temp     =       299.9423 
PotEng   =  -2992685.0663 E_bond   =    164936.7163 E_angle  =    707235.6814 
E_dihed  =    337032.5672 E_impro  =     14607.9537 E_vdwl   =   -131815.7240 
E_coul   =  13333565.3825 E_long   = -17418247.6434 Press    =        14.1102 
Volume   =  19759341.2541 
---------------- Step     5100 ----- CPU =   1440.8902 (sec) ----------------
TotEng   =  -1616399.2497 KinEng   =   1376617.6901 Temp     =       299.9313 
PotEng   =  -2993016.9398 E_bond   =    165193.2633 E_angle  =    707960.9524 
E_dihed  =    336808.7500 E_impro  =     14500.5879 E_vdwl   =   -131341.6821 
E_coul   =  13332198.4573 E_long   = -17418337.2687 Press    =         7.4179 
Volume   =  19759773.7460 
---------------- Step     5150 ----- CPU =   1454.8657 (sec) ----------------
TotEng   =  -1615963.3537 KinEng   =   1376138.7918 Temp     =       299.8270 
PotEng   =  -2992102.1454 E_bond   =    165532.0551 E_angle  =    708748.3489 
E_dihed  =    337394.8443 E_impro  =     14467.4526 E_vdwl   =   -132811.6991 
E_coul   =  13332810.1448 E_long   = -17418243.2920 Press    =       -82.1509 
Volume   =  19759738.6311 
---------------- Step     5200 ----- CPU =   1469.1332 (sec) ----------------
TotEng   =  -1614307.8597 KinEng   =   1377641.3260 Temp     =       300.1543 
PotEng   =  -2991949.1856 E_bond   =    165609.0059 E_angle  =    708740.8929 
E_dihed  =    336888.2781 E_impro  =     14330.3484 E_vdwl   =   -132346.9462 
E_coul   =  13333159.9105 E_long   = -17418330.6751 Press    =        -1.7939 
Volume   =  19758414.4982 
---------------- Step     5250 ----- CPU =   1483.4094 (sec) ----------------
TotEng   =  -1613746.5438 KinEng   =   1378009.3370 Temp     =       300.2345 
PotEng   =  -2991755.8808 E_bond   =    165889.1198 E_angle  =    708442.2800 
E_dihed  =    336902.8458 E_impro  =     14418.0138 E_vdwl   =   -132824.3490 
E_coul   =  13333697.6517 E_long   = -17418281.4429 Press    =       -90.5255 
Volume   =  19756712.1328 
---------------- Step     5300 ----- CPU =   1497.6602 (sec) ----------------
TotEng   =  -1614481.5691 KinEng   =   1377759.6558 Temp     =       300.1801 
PotEng   =  -2992241.2250 E_bond   =    165106.7777 E_angle  =    708522.1895 
E_dihed  =    336925.4579 E_impro  =     14328.5064 E_vdwl   =   -132524.3147 
E_coul   =  13333764.2263 E_long   = -17418364.0681 Press    =       -37.1141 
Volume   =  19755777.2969 
---------------- Step     5350 ----- CPU =   1511.6270 (sec) ----------------
TotEng   =  -1615917.2140 KinEng   =   1376141.6919 Temp     =       299.8276 
PotEng   =  -2992058.9059 E_bond   =    165788.6223 E_angle  =    707669.1338 
E_dihed  =    336957.9187 E_impro  =     14527.0129 E_vdwl   =   -131394.8273 
E_coul   =  13332698.3542 E_long   = -17418305.1204 Press    =        14.8474 
Volume   =  19755705.1747 
---------------- Step     5400 ----- CPU =   1525.9018 (sec) ----------------
TotEng   =  -1616410.1827 KinEng   =   1376891.7042 Temp     =       299.9910 
PotEng   =  -2993301.8869 E_bond   =    165492.2296 E_angle  =    709051.4581 
E_dihed  =    337278.2883 E_impro  =     14439.6584 E_vdwl   =   -133120.6549 
E_coul   =  13331845.9373 E_long   = -17418288.8036 Press    =       -47.2595 
Volume   =  19756960.6505 
---------------- Step     5450 ----- CPU =   1540.1668 (sec) ----------------
TotEng   =  -1616265.3518 KinEng   =   1376356.5314 Temp     =       299.8744 
PotEng   =  -2992621.8832 E_bond   =    165306.1076 E_angle  =    708411.8652 
E_dihed  =    337037.2827 E_impro  =     14257.6413 E_vdwl   =   -132030.7076 
E_coul   =  13332650.6271 E_long   = -17418254.6994 Press    =        -6.6183 
Volume   =  19757454.8530 
---------------- Step     5500 ----- CPU =   1554.1497 (sec) ----------------
TotEng   =  -1615236.2519 KinEng   =   1377673.8413 Temp     =       300.1614 
PotEng   =  -2992910.0932 E_bond   =    165653.6784 E_angle  =    708615.8511 
E_dihed  =    336465.2578 E_impro  =     14274.9817 E_vdwl   =   -132183.2290 
E_coul   =  13332591.9923 E_long   = -17418328.6254 Press    =        15.9193 
Volume   =  19757822.0769 
---------------- Step     5550 ----- CPU =   1568.4130 (sec) ----------------
TotEng   =  -1614160.1550 KinEng   =   1377596.3457 Temp     =       300.1445 
PotEng   =  -2991756.5007 E_bond   =    165780.3100 E_angle  =    709140.7130 
E_dihed  =    336905.3221 E_impro  =     14427.4148 E_vdwl   =   -131270.5343 
E_coul   =  13331576.1653 E_long   = -17418315.8917 Press    =       -25.2466 
Volume   =  19758199.3653 
---------------- Step     5600 ----- CPU =   1582.6768 (sec) ----------------
TotEng   =  -1614402.0834 KinEng   =   1377331.3228 Temp     =       300.0868 
PotEng   =  -2991733.4061 E_bond   =    165477.9713 E_angle  =    708977.9964 
E_dihed  =    336634.4364 E_impro  =     14459.5771 E_vdwl   =   -131992.0952 
E_coul   =  13332915.5307 E_long   = -17418206.8229 Press    =        13.1729 
Volume   =  19757691.5347 
---------------- Step     5650 ----- CPU =   1596.6534 (sec) ----------------
TotEng   =  -1615916.7872 KinEng   =   1377179.1455 Temp     =       300.0536 
PotEng   =  -2993095.9327 E_bond   =    165237.2558 E_angle  =    708119.2336 
E_dihed  =    336804.2691 E_impro  =     14220.8590 E_vdwl   =   -131579.3901 
E_coul   =  13332500.5602 E_long   = -17418398.7203 Press    =        27.6407 
Volume   =  19758701.1918 
---------------- Step     5700 ----- CPU =   1610.9100 (sec) ----------------
TotEng   =  -1617114.0707 KinEng   =   1376290.7447 Temp     =       299.8601 
PotEng   =  -2993404.8154 E_bond   =    165055.2548 E_angle  =    709423.7421 
E_dihed  =    336502.0451 E_impro  =     14351.2372 E_vdwl   =   -130712.8876 
E_coul   =  13330251.3872 E_long   = -17418275.5942 Press    =       -14.3419 
Volume   =  19759512.4088 
---------------- Step     5750 ----- CPU =   1624.8993 (sec) ----------------
TotEng   =  -1617646.0216 KinEng   =   1376476.1895 Temp     =       299.9005 
PotEng   =  -2994122.2111 E_bond   =    165179.1760 E_angle  =    708855.0131 
E_dihed  =    336675.7988 E_impro  =     14407.8971 E_vdwl   =   -133033.5604 
E_coul   =  13332088.4620 E_long   = -17418294.9978 Press    =        -2.0106 
Volume   =  19759656.5020 
---------------- Step     5800 ----- CPU =   1639.1494 (sec) ----------------
TotEng   =  -1616725.0169 KinEng   =   1377778.6926 Temp     =       300.1842 
PotEng   =  -2994503.7095 E_bond   =    165266.1357 E_angle  =    708489.0697 
E_dihed  =    336496.3900 E_impro  =     14293.0001 E_vdwl   =   -131640.6540 
E_coul   =  13330811.3671 E_long   = -17418219.0180 Press    =       -51.8782 
Volume   =  19759462.7098 
---------------- Step     5850 ----- CPU =   1653.1298 (sec) ----------------
TotEng   =  -1615086.5862 KinEng   =   1376391.0006 Temp     =       299.8819 
PotEng   =  -2991477.5867 E_bond   =    165638.7479 E_angle  =    709118.1145 
E_dihed  =    337064.8480 E_impro  =     14469.2837 E_vdwl   =   -132725.1094 
E_coul   =  13333265.9405 E_long   = -17418309.4119 Press    =        12.1112 
Volume   =  19757945.7493 
---------------- Step     5900 ----- CPU =   1667.3844 (sec) ----------------
TotEng   =  -1614521.4651 KinEng   =   1378298.6256 Temp     =       300.2975 
PotEng   =  -2992820.0907 E_bond   =    165489.8686 E_angle  =    710011.1925 
E_dihed  =    336485.9936 E_impro  =     14387.9323 E_vdwl   =   -131975.1855 
E_coul   =  13331028.9484 E_long   = -17418248.8408 Press    =       -35.0816 
Volume   =  19756815.8818 
---------------- Step     5950 ----- CPU =   1681.3621 (sec) ----------------
TotEng   =  -1615913.3957 KinEng   =   1377439.2598 Temp     =       300.1103 
PotEng   =  -2993352.6554 E_bond   =    165657.3661 E_angle  =    708705.3102 
E_dihed  =    336633.0836 E_impro  =     14355.1939 E_vdwl   =   -132579.8633 
E_coul   =  13332075.0526 E_long   = -17418198.7985 Press    =       -36.7752 
Volume   =  19755363.0237 
---------------- Step     6000 ----- CPU =   1695.6299 (sec) ----------------
TotEng   =  -1617471.6253 KinEng   =   1375077.5519 Temp     =       299.5957 
PotEng   =  -2992549.1772 E_bond   =    165764.2784 E_angle  =    708760.8812 
E_dihed  =    336544.5357 E_impro  =     14492.9209 E_vdwl   =   -130966.1664 
E_coul   =  13331093.3029 E_long   = -17418238.9300 Press    =        50.7185 
Volume   =  19754139.2906 
---------------- Step     6050 ----- CPU =   1709.6116 (sec) ----------------
TotEng   =  -1617608.7521 KinEng   =   1376516.0983 Temp     =       299.9092 
PotEng   =  -2994124.8504 E_bond   =    165489.5907 E_angle  =    708781.0335 
E_dihed  =    336805.1475 E_impro  =     14354.6898 E_vdwl   =   -131798.1100 
E_coul   =  13330584.4840 E_long   = -17418341.6859 Press    =       -27.5127 
Volume   =  19754024.1146 
---------------- Step     6100 ----- CPU =   1723.9036 (sec) ----------------
TotEng   =  -1616690.8692 KinEng   =   1377400.6942 Temp     =       300.1019 
PotEng   =  -2994091.5634 E_bond   =    165091.5185 E_angle  =    708447.3556 
E_dihed  =    336884.8002 E_impro  =     14454.3771 E_vdwl   =   -131213.6617 
E_coul   =  13330555.6029 E_long   = -17418311.5559 Press    =        19.8458 
Volume   =  19754256.0691 
---------------- Step     6150 ----- CPU =   1738.1727 (sec) ----------------
TotEng   =  -1615968.3182 KinEng   =   1377309.4483 Temp     =       300.0820 
PotEng   =  -2993277.7665 E_bond   =    165496.0472 E_angle  =    710166.8052 
E_dihed  =    336608.3992 E_impro  =     14326.8167 E_vdwl   =   -132465.4378 
E_coul   =  13330943.9048 E_long   = -17418354.3017 Press    =       -11.0945 
Volume   =  19755363.1278 
---------------- Step     6200 ----- CPU =   1752.1473 (sec) ----------------
TotEng   =  -1616683.1680 KinEng   =   1376624.5867 Temp     =       299.9328 
PotEng   =  -2993307.7548 E_bond   =    165688.9788 E_angle  =    708840.9121 
E_dihed  =    336767.1372 E_impro  =     14449.9121 E_vdwl   =   -131563.4828 
E_coul   =  13330717.0360 E_long   = -17418208.2482 Press    =        10.4525 
Volume   =  19756591.7000 
---------------- Step     6250 ----- CPU =   1766.4061 (sec) ----------------
TotEng   =  -1617021.4930 KinEng   =   1375719.6446 Temp     =       299.7356 
PotEng   =  -2992741.1376 E_bond   =    165132.0608 E_angle  =    710048.0410 
E_dihed  =    337084.6519 E_impro  =     14337.5878 E_vdwl   =   -133113.6778 
E_coul   =  13332113.6523 E_long   = -17418343.4537 Press    =       -37.1160 
Volume   =  19758455.1886 
---------------- Step     6300 ----- CPU =   1780.6904 (sec) ----------------
TotEng   =  -1616435.9079 KinEng   =   1376719.8806 Temp     =       299.9536 
PotEng   =  -2993155.7885 E_bond   =    165411.5092 E_angle  =    709367.4972 
E_dihed  =    337113.6224 E_impro  =     14325.5734 E_vdwl   =   -132044.0872 
E_coul   =  13330917.7234 E_long   = -17418247.6268 Press    =       -36.3235 
Volume   =  19759531.1901 
---------------- Step     6350 ----- CPU =   1794.6577 (sec) ----------------
TotEng   =  -1615770.6478 KinEng   =   1376477.0403 Temp     =       299.9006 
PotEng   =  -2992247.6882 E_bond   =    166285.1595 E_angle  =    709066.9968 
E_dihed  =    337224.9470 E_impro  =     14505.9029 E_vdwl   =   -133086.2465 
E_coul   =  13331957.4733 E_long   = -17418201.9212 Press    =       -75.8865 
Volume   =  19758795.8767 
---------------- Step     6400 ----- CPU =   1808.9126 (sec) ----------------
TotEng   =  -1615276.7585 KinEng   =   1376452.7278 Temp     =       299.8954 
PotEng   =  -2991729.4862 E_bond   =    166019.2642 E_angle  =    709710.5546 
E_dihed  =    337095.2104 E_impro  =     14405.3671 E_vdwl   =   -131503.6483 
E_coul   =  13330829.8126 E_long   = -17418286.0469 Press    =        -3.1501 
Volume   =  19756362.8816 
---------------- Step     6450 ----- CPU =   1823.1824 (sec) ----------------
TotEng   =  -1615749.2523 KinEng   =   1377253.9583 Temp     =       300.0699 
PotEng   =  -2993003.2106 E_bond   =    165746.0318 E_angle  =    709694.8002 
E_dihed  =    336761.5696 E_impro  =     14357.5992 E_vdwl   =   -131978.5530 
E_coul   =  13330643.0991 E_long   = -17418227.7575 Press    =       -44.5383 
Volume   =  19752920.8835 
---------------- Step     6500 ----- CPU =   1837.1674 (sec) ----------------
TotEng   =  -1617260.5234 KinEng   =   1375822.3137 Temp     =       299.7580 
PotEng   =  -2993082.8371 E_bond   =    165593.4640 E_angle  =    709563.4231 
E_dihed  =    337200.0169 E_impro  =     14447.7337 E_vdwl   =   -132258.5490 
E_coul   =  13330683.1143 E_long   = -17418312.0400 Press    =       -24.5612 
Volume   =  19749250.5779 
---------------- Step     6550 ----- CPU =   1851.4144 (sec) ----------------
TotEng   =  -1617324.2814 KinEng   =   1376129.7277 Temp     =       299.8250 
PotEng   =  -2993454.0090 E_bond   =    165675.4131 E_angle  =    709944.3906 
E_dihed  =    336795.3414 E_impro  =     14396.1602 E_vdwl   =   -131984.9057 
E_coul   =  13330051.6129 E_long   = -17418332.0217 Press    =        -8.6142 
Volume   =  19745962.3897 
---------------- Step     6600 ----- CPU =   1865.6913 (sec) ----------------
TotEng   =  -1616675.5491 KinEng   =   1378242.7466 Temp     =       300.2854 
PotEng   =  -2994918.2957 E_bond   =    165150.5821 E_angle  =    708998.9278 
E_dihed  =    336877.4663 E_impro  =     14332.4973 E_vdwl   =   -130417.8214 
E_coul   =  13328370.0196 E_long   = -17418229.9674 Press    =        63.7984 
Volume   =  19742216.0321 
---------------- Step     6650 ----- CPU =   1879.6969 (sec) ----------------
TotEng   =  -1616537.4945 KinEng   =   1377915.6660 Temp     =       300.2141 
PotEng   =  -2994453.1605 E_bond   =    165503.8286 E_angle  =    710564.6486 
E_dihed  =    337160.1552 E_impro  =     14376.7156 E_vdwl   =   -130339.3605 
E_coul   =  13326659.5289 E_long   = -17418378.6769 Press    =        58.9882 
Volume   =  19740285.3784 
---------------- Step     6700 ----- CPU =   1893.9573 (sec) ----------------
TotEng   =  -1617751.5059 KinEng   =   1376316.0286 Temp     =       299.8656 
PotEng   =  -2994067.5345 E_bond   =    165901.3435 E_angle  =    710269.6556 
E_dihed  =    337467.4039 E_impro  =     14336.3247 E_vdwl   =   -132342.2554 
E_coul   =  13328686.9622 E_long   = -17418386.9690 Press    =       -47.0706 
Volume   =  19739970.7027 
---------------- Step     6750 ----- CPU =   1907.9516 (sec) ----------------
TotEng   =  -1619074.1033 KinEng   =   1376508.8636 Temp     =       299.9076 
PotEng   =  -2995582.9669 E_bond   =    165413.5593 E_angle  =    710317.5917 
E_dihed  =    336817.6571 E_impro  =     14554.4911 E_vdwl   =   -132022.9397 
E_coul   =  13327588.1159 E_long   = -17418251.4422 Press    =         6.7529 
Volume   =  19739582.9691 
---------------- Step     6800 ----- CPU =   1921.9396 (sec) ----------------
TotEng   =  -1619035.1372 KinEng   =   1377411.0885 Temp     =       300.1042 
PotEng   =  -2996446.2257 E_bond   =    165422.4533 E_angle  =    708885.3887 
E_dihed  =    337325.7859 E_impro  =     14373.7445 E_vdwl   =   -131926.7859 
E_coul   =  13327737.9070 E_long   = -17418264.7192 Press    =       -32.2046 
Volume   =  19738756.9555 
---------------- Step     6850 ----- CPU =   1936.2112 (sec) ----------------
TotEng   =  -1617606.8712 KinEng   =   1377547.8699 Temp     =       300.1340 
PotEng   =  -2995154.7412 E_bond   =    166114.9496 E_angle  =    708905.3745 
E_dihed  =    337090.5356 E_impro  =     14505.1652 E_vdwl   =   -132226.3958 
E_coul   =  13328788.0464 E_long   = -17418332.4166 Press    =       -56.6429 
Volume   =  19739029.9966 
---------------- Step     6900 ----- CPU =   1950.4862 (sec) ----------------
TotEng   =  -1616419.7646 KinEng   =   1377861.7012 Temp     =       300.2023 
PotEng   =  -2994281.4657 E_bond   =    165917.1245 E_angle  =    710201.7863 
E_dihed  =    337111.7402 E_impro  =     14341.4807 E_vdwl   =   -132499.2832 
E_coul   =  13329058.9720 E_long   = -17418413.2862 Press    =       -13.3159 
Volume   =  19740386.8859 
---------------- Step     6950 ----- CPU =   1964.4923 (sec) ----------------
TotEng   =  -1616570.6504 KinEng   =   1376867.9829 Temp     =       299.9858 
PotEng   =  -2993438.6333 E_bond   =    165604.0339 E_angle  =    710454.1310 
E_dihed  =    337249.7848 E_impro  =     14370.9238 E_vdwl   =   -132514.5855 
E_coul   =  13329740.5325 E_long   = -17418343.4538 Press    =        -3.2689 
Volume   =  19742095.7157 
---------------- Step     7000 ----- CPU =   1978.7767 (sec) ----------------
TotEng   =  -1617236.9445 KinEng   =   1377865.3139 Temp     =       300.2031 
PotEng   =  -2995102.2584 E_bond   =    165640.1023 E_angle  =    709515.1146 
E_dihed  =    337416.9248 E_impro  =     14362.6100 E_vdwl   =   -131441.3834 
E_coul   =  13327684.0599 E_long   = -17418279.6865 Press    =       -17.6157 
Volume   =  19743340.6102 
---------------- Step     7050 ----- CPU =   1993.0650 (sec) ----------------
TotEng   =  -1617868.9524 KinEng   =   1377258.5206 Temp     =       300.0709 
PotEng   =  -2995127.4731 E_bond   =    165467.7297 E_angle  =    709954.6992 
E_dihed  =    337007.4948 E_impro  =     14322.0715 E_vdwl   =   -131173.3528 
E_coul   =  13327609.9434 E_long   = -17418316.0588 Press    =       -27.5162 
Volume   =  19744215.6881 
---------------- Step     7100 ----- CPU =   2007.0546 (sec) ----------------
TotEng   =  -1618907.2548 KinEng   =   1375571.6533 Temp     =       299.7034 
PotEng   =  -2994478.9081 E_bond   =    165397.2930 E_angle  =    710596.7061 
E_dihed  =    337170.4067 E_impro  =     14395.5789 E_vdwl   =   -130801.1968 
E_coul   =  13327122.4670 E_long   = -17418360.1629 Press    =         0.5645 
Volume   =  19744330.0600 
---------------- Step     7150 ----- CPU =   2021.3250 (sec) ----------------
TotEng   =  -1619317.8425 KinEng   =   1376511.1739 Temp     =       299.9081 
PotEng   =  -2995829.0164 E_bond   =    165409.3763 E_angle  =    709629.5136 
E_dihed  =    336896.7551 E_impro  =     14373.8463 E_vdwl   =   -130835.9679 
E_coul   =  13327009.5048 E_long   = -17418312.0447 Press    =       -20.2424 
Volume   =  19744116.8473 
---------------- Step     7200 ----- CPU =   2035.3150 (sec) ----------------
TotEng   =  -1618291.4337 KinEng   =   1376567.2599 Temp     =       299.9203 
PotEng   =  -2994858.6935 E_bond   =    165735.0753 E_angle  =    709819.1356 
E_dihed  =    337082.0920 E_impro  =     14367.5607 E_vdwl   =   -131639.2982 
E_coul   =  13328116.1021 E_long   = -17418339.3609 Press    =        44.5560 
Volume   =  19742978.0315 
---------------- Step     7250 ----- CPU =   2049.5935 (sec) ----------------
TotEng   =  -1616831.6046 KinEng   =   1375844.5071 Temp     =       299.7628 
PotEng   =  -2992676.1117 E_bond   =    166364.0783 E_angle  =    710727.1223 
E_dihed  =    337180.1336 E_impro  =     14445.2764 E_vdwl   =   -131105.8498 
E_coul   =  13328033.8657 E_long   = -17418320.7382 Press    =         0.0186 
Volume   =  19742685.6115 
---------------- Step     7300 ----- CPU =   2063.8876 (sec) ----------------
TotEng   =  -1616513.3411 KinEng   =   1377026.6434 Temp     =       300.0204 
PotEng   =  -2993539.9846 E_bond   =    165732.4787 E_angle  =    709905.4972 
E_dihed  =    337049.9092 E_impro  =     14360.0364 E_vdwl   =   -130222.9059 
E_coul   =  13327963.0139 E_long   = -17418328.0142 Press    =        11.1558 
Volume   =  19742188.7822 
---------------- Step     7350 ----- CPU =   2077.8913 (sec) ----------------
TotEng   =  -1617539.2962 KinEng   =   1376975.6869 Temp     =       300.0093 
PotEng   =  -2994514.9831 E_bond   =    165893.6296 E_angle  =    710599.7159 
E_dihed  =    336113.7928 E_impro  =     14333.0863 E_vdwl   =   -130479.8195 
E_coul   =  13327293.2870 E_long   = -17418268.6752 Press    =       -30.9349 
Volume   =  19742830.7146 
---------------- Step     7400 ----- CPU =   2092.1818 (sec) ----------------
TotEng   =  -1619067.2565 KinEng   =   1376247.3222 Temp     =       299.8506 
PotEng   =  -2995314.5787 E_bond   =    165997.7936 E_angle  =    708513.7685 
E_dihed  =    337226.7278 E_impro  =     14438.0134 E_vdwl   =   -131526.6520 
E_coul   =  13328420.5091 E_long   = -17418384.7390 Press    =         3.4486 
Volume   =  19744041.5760 
---------------- Step     7450 ----- CPU =   2106.2021 (sec) ----------------
TotEng   =  -1619596.4210 KinEng   =   1376936.5914 Temp     =       300.0008 
PotEng   =  -2996533.0124 E_bond   =    166201.2489 E_angle  =    709732.6734 
E_dihed  =    336609.1487 E_impro  =     14478.2375 E_vdwl   =   -130516.6030 
E_coul   =  13325364.8988 E_long   = -17418402.6166 Press    =        12.5654 
Volume   =  19745748.4158 
---------------- Step     7500 ----- CPU =   2120.4971 (sec) ----------------
TotEng   =  -1618402.9595 KinEng   =   1377658.1853 Temp     =       300.1580 
PotEng   =  -2996061.1448 E_bond   =    166212.6326 E_angle  =    710981.2016 
E_dihed  =    336682.1281 E_impro  =     14475.6476 E_vdwl   =   -131710.7521 
E_coul   =  13325750.1684 E_long   = -17418452.1711 Press    =       -95.3514 
Volume   =  19747806.2448 
---------------- Step     7550 ----- CPU =   2134.7674 (sec) ----------------
TotEng   =  -1617304.4941 KinEng   =   1376717.0182 Temp     =       299.9529 
PotEng   =  -2994021.5123 E_bond   =    166471.1115 E_angle  =    711109.2813 
E_dihed  =    337095.5153 E_impro  =     14408.6618 E_vdwl   =   -130426.7882 
E_coul   =  13325686.5802 E_long   = -17418365.8742 Press    =       -46.3321 
Volume   =  19747861.4756 
---------------- Step     7600 ----- CPU =   2148.7631 (sec) ----------------
TotEng   =  -1618511.3437 KinEng   =   1377255.7889 Temp     =       300.0703 
PotEng   =  -2995767.1326 E_bond   =    166070.0255 E_angle  =    709837.5259 
E_dihed  =    336763.8245 E_impro  =     14340.5778 E_vdwl   =   -128676.9343 
E_coul   =  13324203.7394 E_long   = -17418305.8914 Press    =         5.2633 
Volume   =  19746643.6276 
---------------- Step     7650 ----- CPU =   2163.0436 (sec) ----------------
TotEng   =  -1619932.0543 KinEng   =   1376747.1639 Temp     =       299.9595 
PotEng   =  -2996679.2182 E_bond   =    165958.8554 E_angle  =    710523.0540 
E_dihed  =    336764.4336 E_impro  =     14385.4498 E_vdwl   =   -131862.4600 
E_coul   =  13325928.6659 E_long   = -17418377.2168 Press    =        -1.9125 
Volume   =  19745584.0446 
---------------- Step     7700 ----- CPU =   2177.0374 (sec) ----------------
TotEng   =  -1620716.8896 KinEng   =   1377008.4162 Temp     =       300.0164 
PotEng   =  -2997725.3058 E_bond   =    166039.7247 E_angle  =    709633.4272 
E_dihed  =    336880.8343 E_impro  =     14391.7817 E_vdwl   =   -130054.2509 
E_coul   =  13323618.7253 E_long   = -17418235.5481 Press    =       -26.7569 
Volume   =  19744545.0180 
---------------- Step     7750 ----- CPU =   2191.3053 (sec) ----------------
TotEng   =  -1620166.5720 KinEng   =   1376287.8455 Temp     =       299.8594 
PotEng   =  -2996454.4175 E_bond   =    165917.4662 E_angle  =    710662.4555 
E_dihed  =    337074.1234 E_impro  =     14388.1831 E_vdwl   =   -131336.0713 
E_coul   =  13325322.7099 E_long   = -17418483.2843 Press    =       -49.0813 
Volume   =  19743363.6498 
---------------- Step     7800 ----- CPU =   2205.2991 (sec) ----------------
TotEng   =  -1619429.4943 KinEng   =   1377944.7886 Temp     =       300.2204 
PotEng   =  -2997374.2828 E_bond   =    165864.4211 E_angle  =    710418.8314 
E_dihed  =    336887.4834 E_impro  =     14211.0457 E_vdwl   =   -128374.7604 
E_coul   =  13321958.9875 E_long   = -17418340.2916 Press    =        12.2824 
Volume   =  19742266.9483 
---------------- Step     7850 ----- CPU =   2219.5526 (sec) ----------------
TotEng   =  -1619391.9742 KinEng   =   1377430.8027 Temp     =       300.1085 
PotEng   =  -2996822.7769 E_bond   =    166128.7717 E_angle  =    709731.9028 
E_dihed  =    336433.9625 E_impro  =     14256.5947 E_vdwl   =   -130461.7751 
E_coul   =  13325479.4741 E_long   = -17418391.7077 Press    =       -22.4206 
Volume   =  19743710.0013 
---------------- Step     7900 ----- CPU =   2233.8251 (sec) ----------------
TotEng   =  -1619457.3891 KinEng   =   1376501.0066 Temp     =       299.9059 
PotEng   =  -2995958.3957 E_bond   =    165443.9232 E_angle  =    711677.7417 
E_dihed  =    336952.3512 E_impro  =     14463.0977 E_vdwl   =   -132198.7258 
E_coul   =  13326055.2677 E_long   = -17418352.0515 Press    =        19.3511 
Volume   =  19745585.2251 
---------------- Step     7950 ----- CPU =   2247.8117 (sec) ----------------
TotEng   =  -1619260.9042 KinEng   =   1378000.3323 Temp     =       300.2325 
PotEng   =  -2997261.2364 E_bond   =    166284.7460 E_angle  =    710543.0691 
E_dihed  =    336748.3718 E_impro  =     14332.3535 E_vdwl   =   -131532.3908 
E_coul   =  13324729.8258 E_long   = -17418367.2118 Press    =       -73.9798 
Volume   =  19747922.0549 
---------------- Step     8000 ----- CPU =   2262.0736 (sec) ----------------
TotEng   =  -1620007.8129 KinEng   =   1376863.6984 Temp     =       299.9849 
PotEng   =  -2996871.5112 E_bond   =    165833.9886 E_angle  =    710646.1746 
E_dihed  =    336594.2509 E_impro  =     14570.3651 E_vdwl   =   -130190.1894 
E_coul   =  13324045.0680 E_long   = -17418371.1690 Press    =       -25.9429 
Volume   =  19749441.0850 
---------------- Step     8050 ----- CPU =   2276.3445 (sec) ----------------
TotEng   =  -1621153.2849 KinEng   =   1375540.6898 Temp     =       299.6966 
PotEng   =  -2996693.9747 E_bond   =    166094.0764 E_angle  =    709789.3853 
E_dihed  =    336837.6513 E_impro  =     14436.5172 E_vdwl   =   -131350.2027 
E_coul   =  13325987.7080 E_long   = -17418489.1102 Press    =       -49.9416 
Volume   =  19750477.7736 
---------------- Step     8100 ----- CPU =   2290.3294 (sec) ----------------
TotEng   =  -1620703.8325 KinEng   =   1376885.1611 Temp     =       299.9896 
PotEng   =  -2997588.9936 E_bond   =    165965.2055 E_angle  =    711234.2017 
E_dihed  =    336316.9071 E_impro  =     14420.8851 E_vdwl   =   -131494.2791 
E_coul   =  13324454.0425 E_long   = -17418485.9564 Press    =       -59.5368 
Volume   =  19750984.0891 
---------------- Step     8150 ----- CPU =   2304.5970 (sec) ----------------
TotEng   =  -1619864.5330 KinEng   =   1377259.5356 Temp     =       300.0711 
PotEng   =  -2997124.0686 E_bond   =    166125.8055 E_angle  =    709988.0017 
E_dihed  =    336951.0430 E_impro  =     14428.5462 E_vdwl   =   -130947.4728 
E_coul   =  13324771.2228 E_long   = -17418441.2150 Press    =       -37.1977 
Volume   =  19750576.5134 
---------------- Step     8200 ----- CPU =   2318.8755 (sec) ----------------
TotEng   =  -1618693.0447 KinEng   =   1377259.0067 Temp     =       300.0710 
PotEng   =  -2995952.0514 E_bond   =    166056.9487 E_angle  =    710886.4348 
E_dihed  =    337155.7109 E_impro  =     14336.6653 E_vdwl   =   -131561.4204 
E_coul   =  13325538.3188 E_long   = -17418364.7096 Press    =         2.0859 
Volume   =  19749463.3439 
---------------- Step     8250 ----- CPU =   2332.8523 (sec) ----------------
TotEng   =  -1617821.7755 KinEng   =   1377361.9019 Temp     =       300.0934 
PotEng   =  -2995183.6774 E_bond   =    166373.4829 E_angle  =    710558.8783 
E_dihed  =    336904.2273 E_impro  =     14377.1241 E_vdwl   =   -132130.2955 
E_coul   =  13327198.0350 E_long   = -17418465.1296 Press    =       -89.5235 
Volume   =  19747335.3291 
---------------- Step     8300 ----- CPU =   2346.8424 (sec) ----------------
TotEng   =  -1617809.7011 KinEng   =   1376396.6045 Temp     =       299.8831 
PotEng   =  -2994206.3056 E_bond   =    166587.7983 E_angle  =    710684.9512 
E_dihed  =    336877.6035 E_impro  =     14401.1035 E_vdwl   =   -129340.8110 
E_coul   =  13325007.1641 E_long   = -17418424.1150 Press    =        15.6966 
Volume   =  19743641.4578 
---------------- Step     8350 ----- CPU =   2361.1332 (sec) ----------------
TotEng   =  -1618140.0995 KinEng   =   1378346.8117 Temp     =       300.3080 
PotEng   =  -2996486.9112 E_bond   =    165863.3414 E_angle  =    710831.8569 
E_dihed  =    336479.5144 E_impro  =     14359.6780 E_vdwl   =   -129843.2100 
E_coul   =  13324231.8355 E_long   = -17418409.9275 Press    =        35.5614 
Volume   =  19741914.2337 
---------------- Step     8400 ----- CPU =   2375.1212 (sec) ----------------
TotEng   =  -1620065.3836 KinEng   =   1377013.1678 Temp     =       300.0175 
PotEng   =  -2997078.5514 E_bond   =    165959.9380 E_angle  =    711096.2937 
E_dihed  =    336514.4584 E_impro  =     14394.1115 E_vdwl   =   -130965.1733 
E_coul   =  13324290.2045 E_long   = -17418368.3841 Press    =       -23.0167 
Volume   =  19741761.6420 
---------------- Step     8450 ----- CPU =   2389.3917 (sec) ----------------
TotEng   =  -1621325.6339 KinEng   =   1376946.5110 Temp     =       300.0029 
PotEng   =  -2998272.1448 E_bond   =    166252.7009 E_angle  =    710932.5749 
E_dihed  =    336405.0347 E_impro  =     14269.9278 E_vdwl   =   -132294.9180 
E_coul   =  13324490.7094 E_long   = -17418328.1746 Press    =       -19.2294 
Volume   =  19741846.6840 
---------------- Step     8500 ----- CPU =   2403.6664 (sec) ----------------
TotEng   =  -1621311.4681 KinEng   =   1377115.9743 Temp     =       300.0399 
PotEng   =  -2998427.4425 E_bond   =    165581.6663 E_angle  =    711203.6520 
E_dihed  =    336362.4208 E_impro  =     14268.9474 E_vdwl   =   -129897.6870 
E_coul   =  13322381.8338 E_long   = -17418328.2758 Press    =       -19.9360 
Volume   =  19741260.7527 
---------------- Step     8550 ----- CPU =   2417.9333 (sec) ----------------
TotEng   =  -1620363.5768 KinEng   =   1376060.7799 Temp     =       299.8100 
PotEng   =  -2996424.3567 E_bond   =    166621.4889 E_angle  =    711510.7462 
E_dihed  =    336628.1614 E_impro  =     14547.6727 E_vdwl   =   -131041.9678 
E_coul   =  13323625.5098 E_long   = -17418315.9680 Press    =       -15.5052 
Volume   =  19740190.9308 
---------------- Step     8600 ----- CPU =   2431.9252 (sec) ----------------
TotEng   =  -1619094.1899 KinEng   =   1377413.4603 Temp     =       300.1047 
PotEng   =  -2996507.6503 E_bond   =    166071.5896 E_angle  =    711224.9413 
E_dihed  =    336520.0833 E_impro  =     14331.1313 E_vdwl   =   -131152.9585 
E_coul   =  13324884.2076 E_long   = -17418386.6448 Press    =       -33.0766 
Volume   =  19740026.9781 
---------------- Step     8650 ----- CPU =   2446.2139 (sec) ----------------
TotEng   =  -1618431.1751 KinEng   =   1377897.3091 Temp     =       300.2101 
PotEng   =  -2996328.4842 E_bond   =    166409.0565 E_angle  =    711257.0297 
E_dihed  =    336665.2652 E_impro  =     14389.3208 E_vdwl   =   -130938.3586 
E_coul   =  13324259.7605 E_long   = -17418370.5583 Press    =       -15.9694 
Volume   =  19739270.1670 
---------------- Step     8700 ----- CPU =   2460.4948 (sec) ----------------
TotEng   =  -1619100.2027 KinEng   =   1376836.2771 Temp     =       299.9789 
PotEng   =  -2995936.4798 E_bond   =    166024.6283 E_angle  =    711741.5832 
E_dihed  =    336410.6085 E_impro  =     14307.7633 E_vdwl   =   -130466.9661 
E_coul   =  13324420.0351 E_long   = -17418374.1322 Press    =        37.5898 
Volume   =  19738315.9397 
---------------- Step     8750 ----- CPU =   2474.5097 (sec) ----------------
TotEng   =  -1620987.7727 KinEng   =   1376189.3122 Temp     =       299.8380 
PotEng   =  -2997177.0849 E_bond   =    166525.6429 E_angle  =    710400.8775 
E_dihed  =    336922.8638 E_impro  =     14499.2397 E_vdwl   =   -129800.8007 
E_coul   =  13322531.8810 E_long   = -17418256.7891 Press    =       -53.7117 
Volume   =  19737354.7970 
---------------- Step     8800 ----- CPU =   2488.8096 (sec) ----------------
TotEng   =  -1622396.1384 KinEng   =   1375331.5858 Temp     =       299.6511 
PotEng   =  -2997727.7242 E_bond   =    166115.9991 E_angle  =    711172.8758 
E_dihed  =    336762.6098 E_impro  =     14332.0492 E_vdwl   =   -130113.4244 
E_coul   =  13322302.3499 E_long   = -17418300.1836 Press    =       -36.1980 
Volume   =  19735734.8068 
---------------- Step     8850 ----- CPU =   2502.8188 (sec) ----------------
TotEng   =  -1622805.2790 KinEng   =   1375603.2720 Temp     =       299.7103 
PotEng   =  -2998408.5510 E_bond   =    165783.7129 E_angle  =    711339.7873 
E_dihed  =    336888.5900 E_impro  =     14453.6601 E_vdwl   =   -129495.1002 
E_coul   =  13320967.8421 E_long   = -17418347.0432 Press    =        24.4575 
Volume   =  19734791.9248 
---------------- Step     8900 ----- CPU =   2517.1157 (sec) ----------------
TotEng   =  -1622462.8927 KinEng   =   1376994.5162 Temp     =       300.0134 
PotEng   =  -2999457.4088 E_bond   =    165776.5181 E_angle  =    710824.7611 
E_dihed  =    336716.5847 E_impro  =     14468.2675 E_vdwl   =   -131306.4931 
E_coul   =  13322419.2908 E_long   = -17418356.3379 Press    =       -12.2032 
Volume   =  19735079.5877 
---------------- Step     8950 ----- CPU =   2531.4007 (sec) ----------------
TotEng   =  -1620640.5205 KinEng   =   1376855.3498 Temp     =       299.9831 
PotEng   =  -2997495.8704 E_bond   =    165912.6425 E_angle  =    711485.0251 
E_dihed  =    337183.6365 E_impro  =     14485.9446 E_vdwl   =   -130947.1261 
E_coul   =  13322756.4986 E_long   = -17418372.4916 Press    =        -2.8192 
Volume   =  19734772.2733 
---------------- Step     9000 ----- CPU =   2545.6894 (sec) ----------------
TotEng   =  -1618770.1874 KinEng   =   1378352.4827 Temp     =       300.3093 
PotEng   =  -2997122.6701 E_bond   =    166370.2634 E_angle  =    711137.7744 
E_dihed  =    336869.0345 E_impro  =     14432.3433 E_vdwl   =   -131441.4717 
E_coul   =  13323840.1970 E_long   = -17418330.8111 Press    =       -78.2406 
Volume   =  19735297.2839 
---------------- Step     9050 ----- CPU =   2559.9694 (sec) ----------------
TotEng   =  -1618591.0619 KinEng   =   1377809.1260 Temp     =       300.1909 
PotEng   =  -2996400.1880 E_bond   =    165812.7549 E_angle  =    711592.7079 
E_dihed  =    337056.0867 E_impro  =     14306.4068 E_vdwl   =   -129880.4692 
E_coul   =  13323014.3324 E_long   = -17418302.0074 Press    =        22.2781 
Volume   =  19735485.0264 
---------------- Step     9100 ----- CPU =   2573.9671 (sec) ----------------
TotEng   =  -1620615.4190 KinEng   =   1377945.4401 Temp     =       300.2206 
PotEng   =  -2998560.8591 E_bond   =    166555.3175 E_angle  =    711388.8627 
E_dihed  =    337075.8758 E_impro  =     14377.4149 E_vdwl   =   -131284.1507 
E_coul   =  13321819.6423 E_long   = -17418493.8218 Press    =      -101.5718 
Volume   =  19736046.1694 
---------------- Step     9150 ----- CPU =   2588.2491 (sec) ----------------
TotEng   =  -1623380.3257 KinEng   =   1375819.4119 Temp     =       299.7574 
PotEng   =  -2999199.7376 E_bond   =    165425.1317 E_angle  =    710852.3913 
E_dihed  =    336804.1883 E_impro  =     14440.7680 E_vdwl   =   -131077.6459 
E_coul   =  13322763.1763 E_long   = -17418407.7473 Press    =        -4.9309 
Volume   =  19736170.3804 
---------------- Step     9200 ----- CPU =   2602.5243 (sec) ----------------
TotEng   =  -1624116.8699 KinEng   =   1375175.3145 Temp     =       299.6170 
PotEng   =  -2999292.1844 E_bond   =    165669.4120 E_angle  =    711314.9069 
E_dihed  =    336577.7665 E_impro  =     14272.4703 E_vdwl   =   -131782.7203 
E_coul   =  13323056.8026 E_long   = -17418400.8224 Press    =        -4.6545 
Volume   =  19736334.5424 
---------------- Step     9250 ----- CPU =   2616.8083 (sec) ----------------
TotEng   =  -1622214.8800 KinEng   =   1376821.3247 Temp     =       299.9757 
PotEng   =  -2999036.2047 E_bond   =    166256.7889 E_angle  =    710883.0179 
E_dihed  =    337168.3739 E_impro  =     14361.1439 E_vdwl   =   -131212.7086 
E_coul   =  13321870.1020 E_long   = -17418362.9226 Press    =        -5.0238 
Volume   =  19737087.2957 
---------------- Step     9300 ----- CPU =   2630.8044 (sec) ----------------
TotEng   =  -1619841.3164 KinEng   =   1377870.3038 Temp     =       300.2042 
PotEng   =  -2997711.6201 E_bond   =    166458.0219 E_angle  =    711200.8494 
E_dihed  =    336746.2037 E_impro  =     14427.0687 E_vdwl   =   -130314.7245 
E_coul   =  13322193.7153 E_long   = -17418422.7547 Press    =       -21.1395 
Volume   =  19737487.5991 
---------------- Step     9350 ----- CPU =   2645.0711 (sec) ----------------
TotEng   =  -1619067.4969 KinEng   =   1377269.7532 Temp     =       300.0734 
PotEng   =  -2996337.2501 E_bond   =    167131.4652 E_angle  =    711528.3707 
E_dihed  =    336747.0853 E_impro  =     14426.0356 E_vdwl   =   -131644.3800 
E_coul   =  13323863.5850 E_long   = -17418389.4118 Press    =       -32.4690 
Volume   =  19738107.0094 
---------------- Step     9400 ----- CPU =   2659.0597 (sec) ----------------
TotEng   =  -1619699.3590 KinEng   =   1379201.5221 Temp     =       300.4942 
PotEng   =  -2998900.8810 E_bond   =    165913.7337 E_angle  =    710717.5788 
E_dihed  =    336704.5045 E_impro  =     14496.8521 E_vdwl   =   -131820.9782 
E_coul   =  13323406.8557 E_long   = -17418319.4276 Press    =       -70.7184 
Volume   =  19738122.4829 
---------------- Step     9450 ----- CPU =   2673.3300 (sec) ----------------
TotEng   =  -1621475.1500 KinEng   =   1377554.2509 Temp     =       300.1353 
PotEng   =  -2999029.4009 E_bond   =    166304.4994 E_angle  =    711008.0952 
E_dihed  =    336773.0407 E_impro  =     14430.0768 E_vdwl   =   -129611.0012 
E_coul   =  13320459.5832 E_long   = -17418393.6949 Press    =       -49.7745 
Volume   =  19737561.1556 
---------------- Step     9500 ----- CPU =   2687.6087 (sec) ----------------
TotEng   =  -1623693.1828 KinEng   =   1375097.8399 Temp     =       299.6002 
PotEng   =  -2998791.0228 E_bond   =    166615.8906 E_angle  =    711988.2173 
E_dihed  =    336488.5417 E_impro  =     14336.0069 E_vdwl   =   -131991.9791 
E_coul   =  13322191.7982 E_long   = -17418419.4984 Press    =       -63.0589 
Volume   =  19736600.9601 
---------------- Step     9550 ----- CPU =   2701.9060 (sec) ----------------
TotEng   =  -1623631.1709 KinEng   =   1375537.0079 Temp     =       299.6958 
PotEng   =  -2999168.1788 E_bond   =    166046.0039 E_angle  =    710845.7919 
E_dihed  =    336687.3273 E_impro  =     14267.4672 E_vdwl   =   -131075.8037 
E_coul   =  13322503.7131 E_long   = -17418442.6784 Press    =       -12.1181 
Volume   =  19734951.7304 
---------------- Step     9600 ----- CPU =   2715.8880 (sec) ----------------
TotEng   =  -1621628.7165 KinEng   =   1376631.2874 Temp     =       299.9343 
PotEng   =  -2998260.0038 E_bond   =    166054.5725 E_angle  =    711304.9168 
E_dihed  =    336705.4055 E_impro  =     14438.9604 E_vdwl   =   -130456.7835 
E_coul   =  13322159.6606 E_long   = -17418466.7362 Press    =        -0.5861 
Volume   =  19734320.2170 
---------------- Step     9650 ----- CPU =   2730.1809 (sec) ----------------
TotEng   =  -1619186.4434 KinEng   =   1378426.4604 Temp     =       300.3254 
PotEng   =  -2997612.9039 E_bond   =    166355.6726 E_angle  =    711983.5829 
E_dihed  =    336613.5381 E_impro  =     14686.6765 E_vdwl   =   -129859.5818 
E_coul   =  13321020.9882 E_long   = -17418413.7804 Press    =       -59.6854 
Volume   =  19734143.8024 
---------------- Step     9700 ----- CPU =   2744.1847 (sec) ----------------
TotEng   =  -1618339.3220 KinEng   =   1379495.1370 Temp     =       300.5582 
PotEng   =  -2997834.4591 E_bond   =    166576.3483 E_angle  =    711374.4092 
E_dihed  =    337407.5185 E_impro  =     14374.6653 E_vdwl   =   -131993.0596 
E_coul   =  13322881.4705 E_long   = -17418455.8113 Press    =       -14.1475 
Volume   =  19734147.1768 
---------------- Step     9750 ----- CPU =   2758.4588 (sec) ----------------
TotEng   =  -1620563.0817 KinEng   =   1377722.1908 Temp     =       300.1719 
PotEng   =  -2998285.2725 E_bond   =    165924.2952 E_angle  =    712022.7854 
E_dihed  =    337145.3583 E_impro  =     14381.4465 E_vdwl   =   -130812.1535 
E_coul   =  13321443.6053 E_long   = -17418390.6098 Press    =       -27.0147 
Volume   =  19734784.4048 
---------------- Step     9800 ----- CPU =   2772.7618 (sec) ----------------
TotEng   =  -1623629.1148 KinEng   =   1375408.0485 Temp     =       299.6677 
PotEng   =  -2999037.1632 E_bond   =    165878.6883 E_angle  =    712065.5268 
E_dihed  =    336657.2334 E_impro  =     14376.4378 E_vdwl   =   -130136.0007 
E_coul   =  13320591.1044 E_long   = -17418470.1533 Press    =       -20.3108 
Volume   =  19734973.3427 
---------------- Step     9850 ----- CPU =   2786.7577 (sec) ----------------
TotEng   =  -1624190.9387 KinEng   =   1375032.1035 Temp     =       299.5858 
PotEng   =  -2999223.0421 E_bond   =    166119.9964 E_angle  =    711187.4266 
E_dihed  =    336932.7045 E_impro  =     14401.6204 E_vdwl   =   -129199.9038 
E_coul   =  13319756.8265 E_long   = -17418421.7127 Press    =        17.8302 
Volume   =  19735150.5196 
---------------- Step     9900 ----- CPU =   2801.0459 (sec) ----------------
TotEng   =  -1622862.9859 KinEng   =   1376441.5345 Temp     =       299.8929 
PotEng   =  -2999304.5204 E_bond   =    166508.5796 E_angle  =    712199.1333 
E_dihed  =    336829.1250 E_impro  =     14381.2043 E_vdwl   =   -129296.4135 
E_coul   =  13318489.2697 E_long   = -17418415.4188 Press    =       -21.2941 
Volume   =  19734564.6052 
---------------- Step     9950 ----- CPU =   2815.0429 (sec) ----------------
TotEng   =  -1620879.4115 KinEng   =   1377021.3911 Temp     =       300.0192 
PotEng   =  -2997900.8026 E_bond   =    166181.6357 E_angle  =    711451.0930 
E_dihed  =    336568.8392 E_impro  =     14539.3814 E_vdwl   =   -129300.5961 
E_coul   =  13321087.8109 E_long   = -17418428.9668 Press    =        11.1343 
Volume   =  19733964.3391 
---------------- Step    10000 ----- CPU =   2829.3294 (sec) ----------------
TotEng   =  -1619709.0231 KinEng   =   1378322.4498 Temp     =       300.3027 
PotEng   =  -2998031.4729 E_bond   =    166636.7553 E_angle  =    711797.2747 
E_dihed  =    336667.7910 E_impro  =     14592.1276 E_vdwl   =   -132884.7363 
E_coul   =  13323458.1219 E_long   = -17418298.8072 Press    =       -58.4619 
Volume   =  19733358.7948 
Loop time of 2829.33 on 16 procs for 10000 steps with 2048000 atoms

Performance: 0.611 ns/day, 39.296 hours/ns, 3.534 timesteps/s
99.6% CPU use with 16 MPI tasks x 1 OpenMP threads

MPI task timing breakdown:
Section |  min time  |  avg time  |  max time  |%varavg| %total
---------------------------------------------------------------
Pair    | 1755.3     | 1767.5     | 1777.3     |  16.2 | 62.47
Bond    | 112.5      | 113.96     | 115.47     |   8.0 |  4.03
Kspace  | 270.46     | 279.59     | 291.82     |  37.7 |  9.88
Neigh   | 259.78     | 260.14     | 260.53     |   1.4 |  9.19
Comm    | 133.51     | 136.04     | 138.66     |  17.4 |  4.81
Output  | 0.05378    | 0.05555    | 0.058501   |   0.5 |  0.00
Modify  | 253.17     | 258.2      | 263        |  24.8 |  9.13
Other   |            | 13.85      |            |       |  0.49

Nlocal:         128000 ave      128284 max      127616 min
Histogram: 1 1 0 2 2 2 2 3 1 2
Nghost:         109947 ave      110167 max      109595 min
Histogram: 1 1 0 0 2 3 4 2 0 3
Neighs:    4.80804e+07 ave 4.82925e+07 max 4.78996e+07 min
Histogram: 2 2 1 3 2 0 2 1 1 2

Total # of neighbors = 7.6928695e+08
Ave neighs/atom = 375.6284
Ave special neighs/atom = 7.431875
Neighbor list builds = 1326
Dangerous builds = 1
Total wall time: 0:47:10
Intel(R) VTune(TM) Profiler 2022.2.0 collection completed successfully. Use the "aps --report /home/ubuntu/lammps/bench/aps_result_20220705" command to generate textual and HTML reports for the profiling session.
