LAMMPS (7 Jan 2022)
  using 1 OpenMP thread(s) per MPI task
Reading data file ...
  orthogonal box = (-27.5 -38.5 -36.3646) to (27.5 38.5 36.3615)
  2 by 2 by 2 MPI processor grid
  reading atoms ...
  32000 atoms
  reading velocities ...
  32000 velocities
  scanning bonds ...
  4 = max bonds/atom
  scanning angles ...
  8 = max angles/atom
  scanning dihedrals ...
  18 = max dihedrals/atom
  scanning impropers ...
  2 = max impropers/atom
  reading bonds ...
  27723 bonds
  reading angles ...
  40467 angles
  reading dihedrals ...
  56829 dihedrals
  reading impropers ...
  1034 impropers
Finding 1-2 1-3 1-4 neighbors ...
  special bond factors lj:    0        0        0       
  special bond factors coul:  0        0        0       
     4 = max # of 1-2 neighbors
    12 = max # of 1-3 neighbors
    24 = max # of 1-4 neighbors
    26 = max # of special neighbors
  special bonds CPU = 0.003 seconds
  read_data CPU = 0.429 seconds
Finding SHAKE clusters ...
    1617 = # of size 2 clusters
    3633 = # of size 3 clusters
     747 = # of size 4 clusters
    4233 = # of frozen angles
  find clusters CPU = 0.002 seconds
Ewald initialization ...
  using 12-bit tables for long-range coulomb (../kspace.cpp:340)
  G vector (1/distance) = 0.24317651
  estimated absolute RMS force accuracy = 0.038892646
  estimated relative force accuracy = 0.00011712405
  KSpace vectors: actual max1d max3d = 5154 15 14895
                  kxmax kymax kzmax  = 11 15 14
----------------------------------------------------------
Using INTEL Package without Coprocessor.
Compiler: Intel Classic C++ 20.21.5 / Intel(R) C++ g++ 9.3 mode
SIMD compiler directives: Enabled
Precision: mixed
----------------------------------------------------------
  generated 2278 of 2278 mixed pair_coeff terms from arithmetic mixing rule
Neighbor list info ...
  update every 1 steps, delay 5 steps, check yes
  max neighbors/atom: 2000, page size: 100000
  master list distance cutoff = 12
  ghost atom cutoff = 12
  binsize = 6, bins = 10 13 13
  1 neighbor lists, perpetual/occasional/extra = 1 0 0
  (1) pair lj/charmm/coul/long/intel, perpetual
      attributes: half, newton on, intel
      pair build: half/bin/newton/intel
      stencil: half/bin/3d
      bin: intel
Setting up Verlet run ...
  Unit style    : real
  Current step  : 0
  Time step     : 2
Per MPI rank memory allocation (min/avg/max) = 118.4 | 119 | 119.7 Mbytes
---------------- Step        0 ----- CPU =      0.0000 (sec) ----------------
TotEng   =    -25359.1382 KinEng   =     21444.8313 Temp     =       299.0397 
PotEng   =    -46803.9695 E_bond   =      2537.9949 E_angle  =     10921.3721 
E_dihed  =      5211.7865 E_impro  =       213.5135 E_vdwl   =     -2307.8639 
E_coul   =    200896.8670 E_long   =   -264277.6397 Press    =      -144.5718 
Volume   =    307995.0335 
---------------- Step       50 ----- CPU =      8.6147 (sec) ----------------
TotEng   =    -25332.7266 KinEng   =     21500.7521 Temp     =       299.8195 
PotEng   =    -46833.4787 E_bond   =      2471.7867 E_angle  =     10836.5196 
E_dihed  =      5239.7087 E_impro  =       227.1047 E_vdwl   =     -1993.4986 
E_coul   =    200668.6129 E_long   =   -264283.7128 Press    =       241.5709 
Volume   =    308033.0098 
---------------- Step      100 ----- CPU =     17.2440 (sec) ----------------
TotEng   =    -25294.9741 KinEng   =     21590.4671 Temp     =       301.0705 
PotEng   =    -46885.4412 E_bond   =      2568.1565 E_angle  =     10781.9240 
E_dihed  =      5198.5980 E_impro  =       216.7451 E_vdwl   =     -1899.5764 
E_coul   =    200527.5529 E_long   =   -264278.8414 Press    =        12.4793 
Volume   =    308139.1420 
---------------- Step      150 ----- CPU =     25.8812 (sec) ----------------
TotEng   =    -25263.8827 KinEng   =     21517.8516 Temp     =       300.0579 
PotEng   =    -46781.7344 E_bond   =      2556.1283 E_angle  =     10853.3189 
E_dihed  =      5264.7784 E_impro  =       203.1935 E_vdwl   =     -2074.0591 
E_coul   =    200687.9936 E_long   =   -264273.0880 Press    =       245.5221 
Volume   =    308525.4259 
---------------- Step      200 ----- CPU =     34.5620 (sec) ----------------
TotEng   =    -25091.6628 KinEng   =     21523.0555 Temp     =       300.1305 
PotEng   =    -46614.7182 E_bond   =      2488.5783 E_angle  =     11071.1590 
E_dihed  =      5222.0451 E_impro  =       232.9479 E_vdwl   =     -2119.3384 
E_coul   =    200768.9803 E_long   =   -264279.0904 Press    =        83.2196 
Volume   =    309006.7422 
---------------- Step      250 ----- CPU =     43.2469 (sec) ----------------
TotEng   =    -24956.0284 KinEng   =     21606.5110 Temp     =       301.2942 
PotEng   =    -46562.5394 E_bond   =      2541.2097 E_angle  =     11112.6258 
E_dihed  =      5239.4500 E_impro  =       212.7847 E_vdwl   =     -2208.6505 
E_coul   =    200833.4710 E_long   =   -264293.4300 Press    =      -205.8786 
Volume   =    309413.5828 
---------------- Step      300 ----- CPU =     51.9438 (sec) ----------------
TotEng   =    -24997.7592 KinEng   =     21611.9331 Temp     =       301.3698 
PotEng   =    -46609.6923 E_bond   =      2569.0550 E_angle  =     10940.3449 
E_dihed  =      5222.8036 E_impro  =       220.7125 E_vdwl   =     -2258.1558 
E_coul   =    200958.0150 E_long   =   -264262.4675 Press    =      -445.5082 
Volume   =    309705.7386 
---------------- Step      350 ----- CPU =     60.7119 (sec) ----------------
TotEng   =    -25204.9832 KinEng   =     21455.4665 Temp     =       299.1880 
PotEng   =    -46660.4497 E_bond   =      2584.5423 E_angle  =     10956.6699 
E_dihed  =      5257.8206 E_impro  =       212.9485 E_vdwl   =     -2159.3890 
E_coul   =    200754.1304 E_long   =   -264267.1725 Press    =      -441.6420 
Volume   =    309853.5069 
---------------- Step      400 ----- CPU =     69.4457 (sec) ----------------
TotEng   =    -25344.7003 KinEng   =     21368.5293 Temp     =       297.9757 
PotEng   =    -46713.2296 E_bond   =      2541.6827 E_angle  =     10944.2128 
E_dihed  =      5212.1760 E_impro  =       215.7179 E_vdwl   =     -2181.2989 
E_coul   =    200834.2298 E_long   =   -264279.9499 Press    =        89.9505 
Volume   =    309860.6892 
---------------- Step      450 ----- CPU =     78.1833 (sec) ----------------
TotEng   =    -25280.6495 KinEng   =     21375.4804 Temp     =       298.0726 
PotEng   =    -46656.1299 E_bond   =      2514.9859 E_angle  =     10867.8728 
E_dihed  =      5262.9997 E_impro  =       221.9558 E_vdwl   =     -2096.8286 
E_coul   =    200847.0121 E_long   =   -264274.1275 Press    =       286.6232 
Volume   =    309864.6075 
---------------- Step      500 ----- CPU =     86.9494 (sec) ----------------
TotEng   =    -24958.2838 KinEng   =     21471.7500 Temp     =       299.4150 
PotEng   =    -46430.0338 E_bond   =      2606.0232 E_angle  =     10976.5773 
E_dihed  =      5254.8709 E_impro  =       214.6249 E_vdwl   =     -2261.5160 
E_coul   =    201050.0984 E_long   =   -264270.7124 Press    =      -374.9303 
Volume   =    309922.1594 
---------------- Step      550 ----- CPU =     95.7590 (sec) ----------------
TotEng   =    -24695.7911 KinEng   =     21761.1204 Temp     =       303.4502 
PotEng   =    -46456.9115 E_bond   =      2565.6046 E_angle  =     10935.8138 
E_dihed  =      5237.2540 E_impro  =       230.7072 E_vdwl   =     -1962.8807 
E_coul   =    200812.5912 E_long   =   -264276.0015 Press    =       443.4764 
Volume   =    310053.2551 
---------------- Step      600 ----- CPU =    104.6209 (sec) ----------------
TotEng   =    -24748.2374 KinEng   =     21653.1301 Temp     =       301.9443 
PotEng   =    -46401.3675 E_bond   =      2584.8445 E_angle  =     11040.2109 
E_dihed  =      5243.2227 E_impro  =       222.9414 E_vdwl   =     -2242.0635 
E_coul   =    201039.8722 E_long   =   -264290.3957 Press    =      -153.6403 
Volume   =    310390.4001 
Loop time of 104.621 on 8 procs for 600 steps with 32000 atoms

Performance: 0.991 ns/day, 24.218 hours/ns, 5.735 timesteps/s
80.9% CPU use with 8 MPI tasks x 1 OpenMP threads

MPI task timing breakdown:
Section |  min time  |  avg time  |  max time  |%varavg| %total
---------------------------------------------------------------
Pair    | 3.2362     | 3.7506     | 6.8651     |  60.8 |  3.58
Bond    | 0.18893    | 0.22611    | 0.4125     |  14.9 |  0.22
Kspace  | 53.675     | 59.494     | 95.496     | 176.7 | 56.87
Neigh   | 0.81003    | 0.85644    | 0.87464    |   2.5 |  0.82
Comm    | 0.45621    | 39.733     | 46.124     | 235.8 | 37.98
Output  | 0.00048095 | 0.00051241 | 0.00072464 |   0.0 |  0.00
Modify  | 0.4917     | 0.53586    | 0.55065    |   2.5 |  0.51
Other   |            | 0.02412    |            |       |  0.02

Nlocal:           4000 ave        4057 max        3956 min
Histogram: 2 2 0 1 0 0 0 0 1 2
Nghost:        15979.5 ave       16042 max       15916 min
Histogram: 1 2 0 0 1 0 0 2 1 1
Neighs:    1.49259e+06 ave   1.531e+06 max  1.4576e+06 min
Histogram: 1 0 2 2 0 0 0 1 1 1

Total # of neighbors = 11940747
Ave neighs/atom = 373.14834
Ave special neighs/atom = 7.431875
Neighbor list builds = 64
Dangerous builds = 0
Total wall time: 0:01:45
Intel(R) VTune(TM) Profiler 2022.2.0 collection completed successfully. Use the "aps --report /home/ubuntu/lammps/bench/aps_result_20220530" command to generate textual and HTML reports for the profiling session.
