LAMMPS (7 Jan 2022)
  using 1 OpenMP thread(s) per MPI task
New timer settings: style=full  mode=nosync  timeout=off
Reading data file ...
  orthogonal box = (-27.5 -38.5 -36.3646) to (27.5 38.5 36.3615)
  2 by 4 by 4 MPI processor grid
  reading atoms ...
  32000 atoms
  reading velocities ...
  32000 velocities
  scanning bonds ...
  4 = max bonds/atom
  scanning angles ...
  8 = max angles/atom
  scanning dihedrals ...
  18 = max dihedrals/atom
  scanning impropers ...
  2 = max impropers/atom
  reading bonds ...
  27723 bonds
  reading angles ...
  40467 angles
  reading dihedrals ...
  56829 dihedrals
  reading impropers ...
  1034 impropers
Finding 1-2 1-3 1-4 neighbors ...
  special bond factors lj:    0        0        0       
  special bond factors coul:  0        0        0       
     4 = max # of 1-2 neighbors
    12 = max # of 1-3 neighbors
    24 = max # of 1-4 neighbors
    26 = max # of special neighbors
  special bonds CPU = 0.004 seconds
  read_data CPU = 0.230 seconds
Replicating atoms ...
  orthogonal box = (-27.5 -38.5 -36.3646) to (137.5 192.5 181.8137)
  2 by 4 by 4 MPI processor grid
  864000 atoms
  748521 bonds
  1092609 angles
  1534383 dihedrals
  27918 impropers
Finding 1-2 1-3 1-4 neighbors ...
  special bond factors lj:    0        0        0       
  special bond factors coul:  0        0        0       
     4 = max # of 1-2 neighbors
    12 = max # of 1-3 neighbors
    24 = max # of 1-4 neighbors
    26 = max # of special neighbors
  special bonds CPU = 0.026 seconds
  replicate CPU = 0.060 seconds
Finding SHAKE clusters ...
   43659 = # of size 2 clusters
   98091 = # of size 3 clusters
   20169 = # of size 4 clusters
  114291 = # of frozen angles
  find clusters CPU = 0.013 seconds
PPPM initialization ...
  using 12-bit tables for long-range coulomb (../kspace.cpp:340)
  G vector (1/distance) = 0.25235202
  grid = 72 90 90
  stencil order = 7
  estimated absolute RMS force accuracy = 0.029803316
  estimated relative force accuracy = 8.9751802e-05
  using single precision MKL FFT
  3d grid and FFT values/proc = 38700 19440
----------------------------------------------------------
Using INTEL Package without Coprocessor.
Compiler: Intel Classic C++ 20.21.5 / Intel(R) C++ g++ 9.3 mode
SIMD compiler directives: Enabled
Precision: mixed
----------------------------------------------------------
  generated 2278 of 2278 mixed pair_coeff terms from arithmetic mixing rule
Neighbor list info ...
  update every 1 steps, delay 5 steps, check yes
  max neighbors/atom: 2000, page size: 100000
  master list distance cutoff = 12
  ghost atom cutoff = 12
  binsize = 6, bins = 28 39 37
  1 neighbor lists, perpetual/occasional/extra = 1 0 0
  (1) pair lj/charmm/coul/long/intel, perpetual
      attributes: half, newton on, intel
      pair build: half/bin/newton/intel
      stencil: half/bin/3d
      bin: intel
Setting up Verlet run ...
  Unit style    : real
  Current step  : 0
  Time step     : 2
Per MPI rank memory allocation (min/avg/max) = 324.2 | 326.9 | 329.8 Mbytes
---------------- Step        0 ----- CPU =      0.0000 (sec) ----------------
TotEng   =   -684670.9761 KinEng   =    579010.4447 Temp     =       299.0277 
PotEng   =  -1263681.4207 E_bond   =     68525.6859 E_angle  =    294877.1223 
E_dihed  =    140718.2350 E_impro  =      5764.8965 E_vdwl   =    -62312.3838 
E_coul   =   5692538.4978 E_long   =  -7403793.4744 Press    =      -148.6879 
Volume   =   8315865.9045 
---------------- Step       50 ----- CPU =      3.0945 (sec) ----------------
TotEng   =   -683945.7313 KinEng   =    580526.0681 Temp     =       299.8104 
PotEng   =  -1264471.7994 E_bond   =     66737.4420 E_angle  =    292591.3758 
E_dihed  =    141470.6513 E_impro  =      6132.4271 E_vdwl   =    -53811.2235 
E_coul   =   5686392.7410 E_long   =  -7403985.2130 Press    =       238.9123 
Volume   =   8316862.5505 
---------------- Step      100 ----- CPU =      6.2396 (sec) ----------------
TotEng   =   -682827.7630 KinEng   =    582915.3069 Temp     =       301.0444 
PotEng   =  -1265743.0699 E_bond   =     69335.4201 E_angle  =    291121.3611 
E_dihed  =    140366.2515 E_impro  =      5852.7523 E_vdwl   =    -51271.2327 
E_coul   =   5682697.1730 E_long   =  -7403844.7951 Press    =        14.5925 
Volume   =   8319656.0498 
Loop time of 6.23963 on 32 procs for 100 steps with 864000 atoms

Performance: 2.769 ns/day, 8.666 hours/ns, 16.027 timesteps/s
99.1% CPU use with 32 MPI tasks x 1 OpenMP threads

MPI task timing breakdown:
Section |  min time  |  avg time  |  max time  |%varavg|  %CPU | %total
-----------------------------------------------------------------------
Pair    | 3.7037     | 3.779      | 3.8593     |   2.1 |  99.9 | 60.56
Bond    | 0.18756    | 0.23806    | 0.29315    |   8.7 | 100.0 |  3.82
Kspace  | 0.64376    | 0.69586    | 0.79361    |   4.1 |  95.8 | 11.15
Neigh   | 0.48148    | 0.48247    | 0.48343    |   0.1 |  99.9 |  7.73
Comm    | 0.3195     | 0.32825    | 0.35207    |   1.6 |  96.2 |  5.26
Output  | 0.00016667 | 0.00016981 | 0.00019951 |   0.0 | 100.0 |  0.00
Modify  | 0.62298    | 0.67077    | 0.6854     |   2.4 |  98.4 | 10.75
Other   |            | 0.04509    |            |       |       |  0.72

Nlocal:          27000 ave       27280 max       26661 min
Histogram: 2 1 4 4 3 4 3 5 3 3
Nghost:        43954.4 ave       44303 max       43495 min
Histogram: 2 1 2 4 1 8 2 7 2 3
Neighs:    1.01487e+07 ave 1.03516e+07 max 9.97655e+06 min
Histogram: 4 1 5 4 6 2 4 2 0 4

Total # of neighbors = 3.2475852e+08
Ave neighs/atom = 375.87791
Ave special neighs/atom = 7.431875
Neighbor list builds = 11
Dangerous builds = 0
Total wall time: 0:00:06
Intel(R) VTune(TM) Profiler 2022.2.0 collection completed successfully. Use the "aps --report /home/ubuntu/lammps/bench/aps_result_20220421" command to generate textual and HTML reports for the profiling session.
