LAMMPS (7 Jan 2022)
  using 1 OpenMP thread(s) per MPI task
Reading data file ...
  orthogonal box = (-27.5 -38.5 -36.3646) to (27.5 38.5 36.3615)
  4 by 4 by 4 MPI processor grid
  reading atoms ...
  32000 atoms
  reading velocities ...
  32000 velocities
  scanning bonds ...
  4 = max bonds/atom
  scanning angles ...
  8 = max angles/atom
  scanning dihedrals ...
  18 = max dihedrals/atom
  scanning impropers ...
  2 = max impropers/atom
  reading bonds ...
  27723 bonds
  reading angles ...
  40467 angles
  reading dihedrals ...
  56829 dihedrals
  reading impropers ...
  1034 impropers
Finding 1-2 1-3 1-4 neighbors ...
  special bond factors lj:    0        0        0       
  special bond factors coul:  0        0        0       
     4 = max # of 1-2 neighbors
    12 = max # of 1-3 neighbors
    24 = max # of 1-4 neighbors
    26 = max # of special neighbors
  special bonds CPU = 0.027 seconds
  read_data CPU = 0.357 seconds
Finding SHAKE clusters ...
    1617 = # of size 2 clusters
    3633 = # of size 3 clusters
     747 = # of size 4 clusters
    4233 = # of frozen angles
  find clusters CPU = 0.022 seconds
Ewald initialization ...
  using 12-bit tables for long-range coulomb (../kspace.cpp:340)
  G vector (1/distance) = 0.24317651
  estimated absolute RMS force accuracy = 0.038892646
  estimated relative force accuracy = 0.00011712405
  KSpace vectors: actual max1d max3d = 5154 15 14895
                  kxmax kymax kzmax  = 11 15 14
----------------------------------------------------------
Using INTEL Package without Coprocessor.
Compiler: Intel Classic C++ 20.21.5 / Intel(R) C++ g++ 9.3 mode
SIMD compiler directives: Enabled
Precision: mixed
----------------------------------------------------------
  generated 2278 of 2278 mixed pair_coeff terms from arithmetic mixing rule
Neighbor list info ...
  update every 1 steps, delay 5 steps, check yes
  max neighbors/atom: 2000, page size: 100000
  master list distance cutoff = 12
  ghost atom cutoff = 12
  binsize = 6, bins = 10 13 13
  1 neighbor lists, perpetual/occasional/extra = 1 0 0
  (1) pair lj/charmm/coul/long/intel, perpetual
      attributes: half, newton on, intel
      pair build: half/bin/newton/intel
      stencil: half/bin/3d
      bin: intel
Setting up Verlet run ...
  Unit style    : real
  Current step  : 0
  Time step     : 2
Per MPI rank memory allocation (min/avg/max) = 47.58 | 47.99 | 48.57 Mbytes
---------------- Step        0 ----- CPU =      0.0000 (sec) ----------------
TotEng   =    -25359.1383 KinEng   =     21444.8313 Temp     =       299.0397 
PotEng   =    -46803.9695 E_bond   =      2537.9950 E_angle  =     10921.3721 
E_dihed  =      5211.7865 E_impro  =       213.5135 E_vdwl   =     -2307.8639 
E_coul   =    200896.8669 E_long   =   -264277.6397 Press    =      -144.5719 
Volume   =    307995.0335 
---------------- Step       50 ----- CPU =      1.3792 (sec) ----------------
TotEng   =    -25332.7116 KinEng   =     21500.7681 Temp     =       299.8197 
PotEng   =    -46833.4797 E_bond   =      2471.7949 E_angle  =     10836.5204 
E_dihed  =      5239.7071 E_impro  =       227.1021 E_vdwl   =     -1993.4980 
E_coul   =    200668.6058 E_long   =   -264283.7121 Press    =       241.5820 
Volume   =    308033.0101 
---------------- Step      100 ----- CPU =      2.7259 (sec) ----------------
TotEng   =    -25294.9843 KinEng   =     21590.4322 Temp     =       301.0700 
PotEng   =    -46885.4165 E_bond   =      2568.1719 E_angle  =     10781.9451 
E_dihed  =      5198.6046 E_impro  =       216.7419 E_vdwl   =     -1899.5778 
E_coul   =    200527.5399 E_long   =   -264278.8422 Press    =        12.4510 
Volume   =    308139.1397 
---------------- Step      150 ----- CPU =      3.9758 (sec) ----------------
TotEng   =    -25263.9176 KinEng   =     21517.8280 Temp     =       300.0576 
PotEng   =    -46781.7455 E_bond   =      2556.1300 E_angle  =     10853.3126 
E_dihed  =      5264.7714 E_impro  =       203.1849 E_vdwl   =     -2074.0400 
E_coul   =    200687.9841 E_long   =   -264273.0886 Press    =       245.5316 
Volume   =    308525.4176 
---------------- Step      200 ----- CPU =      5.2464 (sec) ----------------
TotEng   =    -25091.6650 KinEng   =     21523.2042 Temp     =       300.1326 
PotEng   =    -46614.8692 E_bond   =      2488.5529 E_angle  =     11071.1672 
E_dihed  =      5222.0554 E_impro  =       232.9569 E_vdwl   =     -2119.3083 
E_coul   =    200768.7979 E_long   =   -264279.0911 Press    =        83.3284 
Volume   =    309006.7406 
---------------- Step      250 ----- CPU =      6.4996 (sec) ----------------
TotEng   =    -24956.1645 KinEng   =     21606.4985 Temp     =       301.2941 
PotEng   =    -46562.6630 E_bond   =      2541.2450 E_angle  =     11112.6803 
E_dihed  =      5239.4510 E_impro  =       212.7499 E_vdwl   =     -2208.7055 
E_coul   =    200833.3961 E_long   =   -264293.4798 Press    =      -206.1427 
Volume   =    309413.6051 
---------------- Step      300 ----- CPU =      7.7712 (sec) ----------------
TotEng   =    -24997.5456 KinEng   =     21611.8808 Temp     =       301.3691 
PotEng   =    -46609.4263 E_bond   =      2569.0515 E_angle  =     10940.3499 
E_dihed  =      5222.8455 E_impro  =       220.6803 E_vdwl   =     -2258.3720 
E_coul   =    200958.7394 E_long   =   -264262.7209 Press    =      -445.0430 
Volume   =    309705.8477 
---------------- Step      350 ----- CPU =      9.0272 (sec) ----------------
TotEng   =    -25203.8153 KinEng   =     21453.6083 Temp     =       299.1621 
PotEng   =    -46657.4236 E_bond   =      2584.6248 E_angle  =     10957.0984 
E_dihed  =      5257.5084 E_impro  =       212.7620 E_vdwl   =     -2155.3670 
E_coul   =    200755.0162 E_long   =   -264269.0664 Press    =      -436.9846 
Volume   =    309852.2683 
---------------- Step      400 ----- CPU =     10.2833 (sec) ----------------
TotEng   =    -25344.8653 KinEng   =     21390.8433 Temp     =       298.2868 
PotEng   =    -46735.7087 E_bond   =      2539.7197 E_angle  =     10941.6260 
E_dihed  =      5211.8028 E_impro  =       215.5420 E_vdwl   =     -2183.7745 
E_coul   =    200819.4461 E_long   =   -264280.0709 Press    =        84.3807 
Volume   =    309860.1506 
---------------- Step      450 ----- CPU =     11.5397 (sec) ----------------
TotEng   =    -25293.0621 KinEng   =     21360.6644 Temp     =       297.8660 
PotEng   =    -46653.7265 E_bond   =      2518.2281 E_angle  =     10870.3314 
E_dihed  =      5261.2150 E_impro  =       222.0254 E_vdwl   =     -2117.3574 
E_coul   =    200866.4630 E_long   =   -264274.6320 Press    =       246.7551 
Volume   =    309857.5444 
---------------- Step      500 ----- CPU =     12.8078 (sec) ----------------
TotEng   =    -25002.1224 KinEng   =     21534.3687 Temp     =       300.2882 
PotEng   =    -46536.4912 E_bond   =      2598.8092 E_angle  =     10958.8075 
E_dihed  =      5259.6762 E_impro  =       212.5844 E_vdwl   =     -2176.3774 
E_coul   =    200885.0325 E_long   =   -264275.0236 Press    =      -264.9642 
Volume   =    309873.3599 
---------------- Step      550 ----- CPU =     14.0619 (sec) ----------------
TotEng   =    -24758.8023 KinEng   =     21742.5399 Temp     =       303.1911 
PotEng   =    -46501.3423 E_bond   =      2569.1143 E_angle  =     10948.8816 
E_dihed  =      5225.5978 E_impro  =       235.8719 E_vdwl   =     -2002.8665 
E_coul   =    200794.5221 E_long   =   -264272.4633 Press    =       387.5115 
Volume   =    309991.7042 
---------------- Step      600 ----- CPU =     15.3281 (sec) ----------------
TotEng   =    -24829.5709 KinEng   =     21656.6556 Temp     =       301.9935 
PotEng   =    -46486.2265 E_bond   =      2543.0441 E_angle  =     10993.4565 
E_dihed  =      5229.4077 E_impro  =       218.4200 E_vdwl   =     -2185.0735 
E_coul   =    200990.4991 E_long   =   -264275.9804 Press    =       -99.7279 
Volume   =    310277.6089 
Loop time of 15.3282 on 64 procs for 600 steps with 32000 atoms

Performance: 6.764 ns/day, 3.548 hours/ns, 39.144 timesteps/s
84.8% CPU use with 64 MPI tasks x 1 OpenMP threads

MPI task timing breakdown:
Section |  min time  |  avg time  |  max time  |%varavg| %total
---------------------------------------------------------------
Pair    | 0.45516    | 0.5043     | 0.98394    |   9.2 |  3.29
Bond    | 0.0071209  | 0.035041   | 0.070135   |   8.2 |  0.23
Kspace  | 7.4705     | 7.8832     | 11.679     |  18.3 | 51.43
Neigh   | 0.36316    | 0.3786     | 0.38066    |   0.6 |  2.47
Comm    | 0.19996    | 2.7213     | 6.4799     | 138.4 | 17.75
Output  | 0.0005997  | 0.00061009 | 0.00092601 |   0.0 |  0.00
Modify  | 0.3454     | 3.7532     | 5.8855     | 119.2 | 24.49
Other   |            | 0.05189    |            |       |  0.34

Nlocal:            500 ave         543 max         465 min
Histogram: 4 8 2 11 12 10 9 7 0 1
Nghost:        6620.38 ave        6716 max        6516 min
Histogram: 4 3 3 3 9 20 11 5 4 2
Neighs:         186657 ave      207963 max      170340 min
Histogram: 5 7 8 6 12 11 8 5 1 1

Total # of neighbors = 11946068
Ave neighs/atom = 373.31462
Ave special neighs/atom = 7.431875
Neighbor list builds = 65
Dangerous builds = 0
Total wall time: 0:00:15
Intel(R) VTune(TM) Profiler 2022.2.0 collection completed successfully. Use the "aps --report /home/ubuntu/lammps/bench/aps_result_20220530" command to generate textual and HTML reports for the profiling session.
