LAMMPS (7 Jan 2022)
  using 1 OpenMP thread(s) per MPI task
Reading data file ...
  orthogonal box = (-27.5 -38.5 -36.3646) to (27.5 38.5 36.3615)
  2 by 4 by 4 MPI processor grid
  reading atoms ...
  32000 atoms
  reading velocities ...
  32000 velocities
  scanning bonds ...
  4 = max bonds/atom
  scanning angles ...
  8 = max angles/atom
  scanning dihedrals ...
  18 = max dihedrals/atom
  scanning impropers ...
  2 = max impropers/atom
  reading bonds ...
  27723 bonds
  reading angles ...
  40467 angles
  reading dihedrals ...
  56829 dihedrals
  reading impropers ...
  1034 impropers
Finding 1-2 1-3 1-4 neighbors ...
  special bond factors lj:    0        0        0       
  special bond factors coul:  0        0        0       
     4 = max # of 1-2 neighbors
    12 = max # of 1-3 neighbors
    24 = max # of 1-4 neighbors
    26 = max # of special neighbors
  special bonds CPU = 0.005 seconds
  read_data CPU = 0.268 seconds
Replicating atoms ...
  orthogonal box = (-27.5 -38.5 -36.3646) to (82.5 115.5 109.0876)
  2 by 4 by 4 MPI processor grid
  256000 atoms
  221784 bonds
  323736 angles
  454632 dihedrals
  8272 impropers
Finding 1-2 1-3 1-4 neighbors ...
  special bond factors lj:    0        0        0       
  special bond factors coul:  0        0        0       
     4 = max # of 1-2 neighbors
    12 = max # of 1-3 neighbors
    24 = max # of 1-4 neighbors
    26 = max # of special neighbors
  special bonds CPU = 0.010 seconds
  replicate CPU = 0.031 seconds
Finding SHAKE clusters ...
   12936 = # of size 2 clusters
   29064 = # of size 3 clusters
    5976 = # of size 4 clusters
   33864 = # of frozen angles
  find clusters CPU = 0.006 seconds
PPPM initialization ...
  using 12-bit tables for long-range coulomb (../kspace.cpp:340)
  G vector (1/distance) = 0.32786357
  grid = 96 120 120
  stencil order = 7
  estimated absolute RMS force accuracy = 0.00036845542
  estimated relative force accuracy = 1.1095925e-06
  using single precision MKL FFT
  3d grid and FFT values/proc = 86697 46080
----------------------------------------------------------
Using INTEL Package without Coprocessor.
Compiler: Intel Classic C++ 20.21.5 / Intel(R) C++ g++ 9.3 mode
SIMD compiler directives: Enabled
Precision: mixed
----------------------------------------------------------
  generated 2278 of 2278 mixed pair_coeff terms from arithmetic mixing rule
Neighbor list info ...
  update every 1 steps, delay 5 steps, check yes
  max neighbors/atom: 2000, page size: 100000
  master list distance cutoff = 12
  ghost atom cutoff = 12
  binsize = 6, bins = 19 26 25
  1 neighbor lists, perpetual/occasional/extra = 1 0 0
  (1) pair lj/charmm/coul/long/intel, perpetual
      attributes: half, newton on, intel
      pair build: half/bin/newton/intel
      stencil: half/bin/3d
      bin: intel
Setting up Verlet run ...
  Unit style    : real
  Current step  : 0
  Time step     : 2
Per MPI rank memory allocation (min/avg/max) = 111 | 111.4 | 112.6 Mbytes
---------------- Step        0 ----- CPU =      0.0000 (sec) ----------------
TotEng   =   -202873.3588 KinEng   =    171558.6503 Temp     =       299.0288 
PotEng   =   -374432.0091 E_bond   =     20303.9370 E_angle  =     87370.9630 
E_dihed  =     41694.2900 E_impro  =      1708.1116 E_vdwl   =    -18462.9090 
E_coul   =   2338815.5084 E_long   =  -2845861.9100 Press    =      -152.9531 
Volume   =   2463960.2680 
---------------- Step       50 ----- CPU =      1.5191 (sec) ----------------
TotEng   =   -202663.8182 KinEng   =    172010.1834 Temp     =       299.8158 
PotEng   =   -374674.0016 E_bond   =     19773.2479 E_angle  =     86694.2145 
E_dihed  =     41915.8557 E_impro  =      1817.1263 E_vdwl   =    -15940.0986 
E_coul   =   2337053.0731 E_long   =  -2845987.4206 Press    =       234.7922 
Volume   =   2464248.9220 
---------------- Step      100 ----- CPU =      3.0118 (sec) ----------------
TotEng   =   -202303.5931 KinEng   =    172732.8015 Temp     =       301.0754 
PotEng   =   -375036.3946 E_bond   =     20542.8043 E_angle  =     86253.3581 
E_dihed  =     41588.5376 E_impro  =      1734.3111 E_vdwl   =    -15202.4479 
E_coul   =   2335985.3489 E_long   =  -2845938.3067 Press    =        12.2794 
Volume   =   2465060.1688 
Loop time of 3.01183 on 32 procs for 100 steps with 256000 atoms

Performance: 5.737 ns/day, 4.183 hours/ns, 33.202 timesteps/s
97.0% CPU use with 32 MPI tasks x 1 OpenMP threads

MPI task timing breakdown:
Section |  min time  |  avg time  |  max time  |%varavg| %total
---------------------------------------------------------------
Pair    | 1.1156     | 1.2862     | 1.4323     |   8.6 | 42.71
Bond    | 0.065036   | 0.075486   | 0.086542   |   2.1 |  2.51
Kspace  | 0.59773    | 0.75112    | 0.9332     |  11.9 | 24.94
Neigh   | 0.17832    | 0.179      | 0.17982    |   0.1 |  5.94
Comm    | 0.093572   | 0.11881    | 0.17118    |   6.3 |  3.94
Output  | 0.00011962 | 0.00012342 | 0.00019895 |   0.0 |  0.00
Modify  | 0.44171    | 0.55345    | 0.61401    |   6.4 | 18.38
Other   |            | 0.04762    |            |       |  1.58

Nlocal:           8000 ave        8144 max        7935 min
Histogram: 8 16 0 0 0 0 0 0 0 8
Nghost:        22729.2 ave       22768 max       22690 min
Histogram: 8 0 0 0 8 8 0 0 0 8
Neighs:    3.00703e+06 ave 3.10818e+06 max 2.95595e+06 min
Histogram: 8 8 8 0 0 0 0 0 0 8

Total # of neighbors = 96224804
Ave neighs/atom = 375.87814
Ave special neighs/atom = 7.431875
Neighbor list builds = 11
Dangerous builds = 0
Total wall time: 0:00:03
Intel(R) VTune(TM) Profiler 2022.2.0 collection completed successfully. Use the "aps --report /home/ubuntu/lammps/bench/aps_result_20220530" command to generate textual and HTML reports for the profiling session.
