LAMMPS (7 Jan 2022)
  using 1 OpenMP thread(s) per MPI task
Reading data file ...
  orthogonal box = (-27.5 -38.5 -36.3646) to (27.5 38.5 36.3615)
  2 by 4 by 2 MPI processor grid
  reading atoms ...
  32000 atoms
  reading velocities ...
  32000 velocities
  scanning bonds ...
  4 = max bonds/atom
  scanning angles ...
  8 = max angles/atom
  scanning dihedrals ...
  18 = max dihedrals/atom
  scanning impropers ...
  2 = max impropers/atom
  reading bonds ...
  27723 bonds
  reading angles ...
  40467 angles
  reading dihedrals ...
  56829 dihedrals
  reading impropers ...
  1034 impropers
Finding 1-2 1-3 1-4 neighbors ...
  special bond factors lj:    0        0        0       
  special bond factors coul:  0        0        0       
     4 = max # of 1-2 neighbors
    12 = max # of 1-3 neighbors
    24 = max # of 1-4 neighbors
    26 = max # of special neighbors
  special bonds CPU = 0.003 seconds
  read_data CPU = 0.245 seconds
Finding SHAKE clusters ...
    1617 = # of size 2 clusters
    3633 = # of size 3 clusters
     747 = # of size 4 clusters
    4233 = # of frozen angles
  find clusters CPU = 0.002 seconds
PPPM initialization ...
  using 12-bit tables for long-range coulomb (../kspace.cpp:340)
  G vector (1/distance) = 0.25235202
  grid = 24 30 30
  stencil order = 7
  estimated absolute RMS force accuracy = 0.029803316
  estimated relative force accuracy = 8.9751802e-05
  using single precision MKL FFT
  3d grid and FFT values/proc = 6270 1440
----------------------------------------------------------
Using INTEL Package without Coprocessor.
Compiler: Intel Classic C++ 20.21.5 / Intel(R) C++ g++ 9.3 mode
SIMD compiler directives: Enabled
Precision: mixed
----------------------------------------------------------
  generated 2278 of 2278 mixed pair_coeff terms from arithmetic mixing rule
Neighbor list info ...
  update every 1 steps, delay 5 steps, check yes
  max neighbors/atom: 2000, page size: 100000
  master list distance cutoff = 12
  ghost atom cutoff = 12
  binsize = 6, bins = 10 13 13
  1 neighbor lists, perpetual/occasional/extra = 1 0 0
  (1) pair lj/charmm/coul/long/intel, perpetual
      attributes: half, newton on, intel
      pair build: half/bin/newton/intel
      stencil: half/bin/3d
      bin: intel
Setting up Verlet run ...
  Unit style    : real
  Current step  : 0
  Time step     : 2
Per MPI rank memory allocation (min/avg/max) = 36.13 | 36.67 | 37.34 Mbytes
---------------- Step        0 ----- CPU =      0.0000 (sec) ----------------
TotEng   =    -25358.1687 KinEng   =     21444.8313 Temp     =       299.0397 
PotEng   =    -46803.0000 E_bond   =      2537.9949 E_angle  =     10921.3721 
E_dihed  =      5211.7865 E_impro  =       213.5135 E_vdwl   =     -2307.8639 
E_coul   =    210834.7641 E_long   =   -274214.5673 Press    =      -148.6999 
Volume   =    307995.0335 
---------------- Step       50 ----- CPU =      0.3011 (sec) ----------------
TotEng   =    -25332.0732 KinEng   =     21500.5592 Temp     =       299.8168 
PotEng   =    -46832.6324 E_bond   =      2471.7234 E_angle  =     10836.5751 
E_dihed  =      5239.6313 E_impro  =       227.1231 E_vdwl   =     -1993.0581 
E_coul   =    210607.0482 E_long   =   -274221.6754 Press    =       238.8345 
Volume   =    308031.9402 
---------------- Step      100 ----- CPU =      0.6032 (sec) ----------------
TotEng   =    -25292.3216 KinEng   =     21588.2643 Temp     =       301.0398 
PotEng   =    -46880.5860 E_bond   =      2567.8727 E_angle  =     10781.8269 
E_dihed  =      5198.6630 E_impro  =       216.7715 E_vdwl   =     -1899.0496 
E_coul   =    210469.7933 E_long   =   -274216.4636 Press    =        14.2895 
Volume   =    308135.3247 
---------------- Step      150 ----- CPU =      0.9052 (sec) ----------------
TotEng   =    -25260.1915 KinEng   =     21534.2318 Temp     =       300.2863 
PotEng   =    -46794.4234 E_bond   =      2556.6810 E_angle  =     10854.0639 
E_dihed  =      5264.4402 E_impro  =       203.0062 E_vdwl   =     -2074.2836 
E_coul   =    210608.0526 E_long   =   -274206.3837 Press    =       243.9238 
Volume   =    308518.6139 
---------------- Step      200 ----- CPU =      1.1996 (sec) ----------------
TotEng   =    -25078.6813 KinEng   =     21541.0867 Temp     =       300.3819 
PotEng   =    -46619.7679 E_bond   =      2489.3676 E_angle  =     11075.6219 
E_dihed  =      5221.5759 E_impro  =       232.4638 E_vdwl   =     -2148.3288 
E_coul   =    210714.9333 E_long   =   -274205.4016 Press    =        41.0086 
Volume   =    308999.3951 
---------------- Step      250 ----- CPU =      1.4978 (sec) ----------------
TotEng   =    -24960.6904 KinEng   =     21534.2454 Temp     =       300.2865 
PotEng   =    -46494.9358 E_bond   =      2541.5526 E_angle  =     11095.1089 
E_dihed  =      5245.4136 E_impro  =       213.4041 E_vdwl   =     -2164.0445 
E_coul   =    210796.7493 E_long   =   -274223.1197 Press    =      -155.2029 
Volume   =    309392.6142 
---------------- Step      300 ----- CPU =      1.7936 (sec) ----------------
TotEng   =    -25028.7539 KinEng   =     21524.2113 Temp     =       300.1466 
PotEng   =    -46552.9652 E_bond   =      2560.3564 E_angle  =     10925.9222 
E_dihed  =      5220.4232 E_impro  =       224.4588 E_vdwl   =     -2163.8779 
E_coul   =    210888.1321 E_long   =   -274208.3801 Press    =      -377.6695 
Volume   =    309705.3421 
---------------- Step      350 ----- CPU =      2.0927 (sec) ----------------
TotEng   =    -25148.3689 KinEng   =     21594.0649 Temp     =       301.1207 
PotEng   =    -46742.4338 E_bond   =      2580.3972 E_angle  =     10957.2332 
E_dihed  =      5250.5264 E_impro  =       208.9820 E_vdwl   =     -2012.3481 
E_coul   =    210494.7282 E_long   =   -274221.9527 Press    =      -305.1549 
Volume   =    309852.4474 
---------------- Step      400 ----- CPU =      2.3761 (sec) ----------------
TotEng   =    -25297.5349 KinEng   =     21404.3488 Temp     =       298.4752 
PotEng   =    -46701.8837 E_bond   =      2538.1372 E_angle  =     10922.0996 
E_dihed  =      5215.5619 E_impro  =       216.1963 E_vdwl   =     -1999.7317 
E_coul   =    210618.8178 E_long   =   -274212.9648 Press    =       258.3866 
Volume   =    309918.0955 
---------------- Step      450 ----- CPU =      2.6545 (sec) ----------------
TotEng   =    -25333.0560 KinEng   =     21454.9979 Temp     =       299.1814 
PotEng   =    -46788.0540 E_bond   =      2497.7796 E_angle  =     10905.1979 
E_dihed  =      5275.8171 E_impro  =       221.1863 E_vdwl   =     -2170.4832 
E_coul   =    210686.7458 E_long   =   -274204.2974 Press    =       154.6264 
Volume   =    310047.5296 
---------------- Step      500 ----- CPU =      2.9222 (sec) ----------------
TotEng   =    -25127.0947 KinEng   =     21514.3599 Temp     =       300.0092 
PotEng   =    -46641.4546 E_bond   =      2590.7082 E_angle  =     10910.2104 
E_dihed  =      5236.8757 E_impro  =       223.0150 E_vdwl   =     -2155.1239 
E_coul   =    210755.5468 E_long   =   -274202.6867 Press    =      -204.2283 
Volume   =    310115.6639 
---------------- Step      550 ----- CPU =      3.1594 (sec) ----------------
TotEng   =    -24902.0347 KinEng   =     21572.2859 Temp     =       300.8170 
PotEng   =    -46474.3207 E_bond   =      2565.2477 E_angle  =     10964.8729 
E_dihed  =      5211.1277 E_impro  =       239.9794 E_vdwl   =     -2149.3946 
E_coul   =    210904.7453 E_long   =   -274210.8991 Press    =       282.7157 
Volume   =    310121.3927 
---------------- Step      600 ----- CPU =      3.3915 (sec) ----------------
TotEng   =    -24812.6230 KinEng   =     21722.5225 Temp     =       302.9120 
PotEng   =    -46535.1455 E_bond   =      2520.7961 E_angle  =     11009.7844 
E_dihed  =      5265.1465 E_impro  =       220.3919 E_vdwl   =     -2230.9955 
E_coul   =    210900.1814 E_long   =   -274220.4504 Press    =        12.6409 
Volume   =    310191.0574 
---------------- Step      650 ----- CPU =      3.6258 (sec) ----------------
TotEng   =    -25004.6416 KinEng   =     21575.1199 Temp     =       300.8565 
PotEng   =    -46579.7614 E_bond   =      2519.9236 E_angle  =     10872.2970 
E_dihed  =      5249.4241 E_impro  =       207.0862 E_vdwl   =     -2124.8296 
E_coul   =    210904.5164 E_long   =   -274208.1793 Press    =      -147.1719 
Volume   =    310343.2195 
---------------- Step      700 ----- CPU =      3.8608 (sec) ----------------
TotEng   =    -25198.9429 KinEng   =     21377.2082 Temp     =       298.0967 
PotEng   =    -46576.1511 E_bond   =      2493.7573 E_angle  =     10952.1745 
E_dihed  =      5233.9579 E_impro  =       213.6390 E_vdwl   =     -2162.8017 
E_coul   =    210906.6422 E_long   =   -274213.5203 Press    =       265.0478 
Volume   =    310408.7399 
---------------- Step      750 ----- CPU =      4.0924 (sec) ----------------
TotEng   =    -25188.2084 KinEng   =     21445.0719 Temp     =       299.0430 
PotEng   =    -46633.2803 E_bond   =      2551.7191 E_angle  =     10946.6492 
E_dihed  =      5218.9402 E_impro  =       209.9493 E_vdwl   =     -2303.4998 
E_coul   =    210941.3286 E_long   =   -274198.3670 Press    =      -390.1604 
Volume   =    310381.7529 
---------------- Step      800 ----- CPU =      4.3249 (sec) ----------------
TotEng   =    -25062.9502 KinEng   =     21450.9749 Temp     =       299.1253 
PotEng   =    -46513.9251 E_bond   =      2512.6061 E_angle  =     10991.0563 
E_dihed  =      5239.2208 E_impro  =       206.7610 E_vdwl   =     -2051.4024 
E_coul   =    210787.4743 E_long   =   -274199.6413 Press    =       100.7127 
Volume   =    310246.5214 
---------------- Step      850 ----- CPU =      4.5615 (sec) ----------------
TotEng   =    -24938.0400 KinEng   =     21669.8688 Temp     =       302.1777 
PotEng   =    -46607.9088 E_bond   =      2536.9988 E_angle  =     11018.9269 
E_dihed  =      5255.0013 E_impro  =       218.7025 E_vdwl   =     -2081.3909 
E_coul   =    210665.3058 E_long   =   -274221.4533 Press    =       626.6190 
Volume   =    309933.8870 
---------------- Step      900 ----- CPU =      4.7928 (sec) ----------------
TotEng   =    -25009.7322 KinEng   =     21389.4713 Temp     =       298.2677 
PotEng   =    -46399.2035 E_bond   =      2606.2671 E_angle  =     11005.5816 
E_dihed  =      5258.1971 E_impro  =       226.3673 E_vdwl   =     -1745.8245 
E_coul   =    210465.6139 E_long   =   -274215.4060 Press    =       403.4196 
Volume   =    309742.6741 
---------------- Step      950 ----- CPU =      5.0307 (sec) ----------------
TotEng   =    -25117.6068 KinEng   =     21462.4144 Temp     =       299.2849 
PotEng   =    -46580.0213 E_bond   =      2595.2614 E_angle  =     10864.5615 
E_dihed  =      5280.0945 E_impro  =       230.2001 E_vdwl   =     -1927.7199 
E_coul   =    210588.4950 E_long   =   -274210.9140 Press    =      -198.6450 
Volume   =    309800.6215 
---------------- Step     1000 ----- CPU =      5.2632 (sec) ----------------
TotEng   =    -25232.4504 KinEng   =     21538.5120 Temp     =       300.3460 
PotEng   =    -46770.9624 E_bond   =      2525.2481 E_angle  =     10994.1390 
E_dihed  =      5203.0952 E_impro  =       205.3407 E_vdwl   =     -2105.9270 
E_coul   =    210617.8319 E_long   =   -274210.6903 Press    =      -176.6532 
Volume   =    309979.9118 
---------------- Step     1050 ----- CPU =      5.4933 (sec) ----------------
TotEng   =    -25223.7500 KinEng   =     21393.4569 Temp     =       298.3233 
PotEng   =    -46617.2069 E_bond   =      2539.2681 E_angle  =     11031.8999 
E_dihed  =      5246.5725 E_impro  =       223.5201 E_vdwl   =     -2096.3569 
E_coul   =    210657.8115 E_long   =   -274219.9220 Press    =      -187.5717 
Volume   =    310011.4252 
---------------- Step     1100 ----- CPU =      5.7278 (sec) ----------------
TotEng   =    -25075.0574 KinEng   =     21510.2018 Temp     =       299.9512 
PotEng   =    -46585.2592 E_bond   =      2582.8416 E_angle  =     10966.1369 
E_dihed  =      5212.5702 E_impro  =       220.2439 E_vdwl   =     -2048.8181 
E_coul   =    210695.5191 E_long   =   -274213.7528 Press    =      -109.8907 
Volume   =    309823.3763 
---------------- Step     1150 ----- CPU =      5.9573 (sec) ----------------
TotEng   =    -24884.5943 KinEng   =     21576.4803 Temp     =       300.8755 
PotEng   =    -46461.0746 E_bond   =      2458.3482 E_angle  =     11007.9346 
E_dihed  =      5246.0372 E_impro  =       219.8670 E_vdwl   =     -2126.7653 
E_coul   =    210945.7878 E_long   =   -274212.2841 Press    =       256.4921 
Volume   =    309600.4169 
---------------- Step     1200 ----- CPU =      6.1965 (sec) ----------------
TotEng   =    -24804.1935 KinEng   =     21623.1388 Temp     =       301.5261 
PotEng   =    -46427.3323 E_bond   =      2553.8049 E_angle  =     11002.4478 
E_dihed  =      5292.7917 E_impro  =       215.5951 E_vdwl   =     -2166.7672 
E_coul   =    210896.3547 E_long   =   -274221.5593 Press    =       122.3249 
Volume   =    309606.9828 
---------------- Step     1250 ----- CPU =      6.4325 (sec) ----------------
TotEng   =    -24971.8812 KinEng   =     21674.4414 Temp     =       302.2415 
PotEng   =    -46646.3226 E_bond   =      2578.2161 E_angle  =     10940.1669 
E_dihed  =      5215.9386 E_impro  =       208.3306 E_vdwl   =     -2004.0265 
E_coul   =    210627.8921 E_long   =   -274212.8404 Press    =       131.0950 
Volume   =    309855.5920 
---------------- Step     1300 ----- CPU =      6.6650 (sec) ----------------
TotEng   =    -25260.2523 KinEng   =     21538.7279 Temp     =       300.3490 
PotEng   =    -46798.9802 E_bond   =      2613.0083 E_angle  =     10929.9533 
E_dihed  =      5245.9754 E_impro  =       213.5409 E_vdwl   =     -2074.4539 
E_coul   =    210493.5495 E_long   =   -274220.5537 Press    =      -377.5808 
Volume   =    310044.9984 
---------------- Step     1350 ----- CPU =      6.9009 (sec) ----------------
TotEng   =    -25505.5547 KinEng   =     21377.3291 Temp     =       298.0984 
PotEng   =    -46882.8838 E_bond   =      2564.8945 E_angle  =     10824.4696 
E_dihed  =      5176.5788 E_impro  =       217.0540 E_vdwl   =     -2059.4187 
E_coul   =    210621.9639 E_long   =   -274228.4259 Press    =      -109.8101 
Volume   =    310102.8097 
---------------- Step     1400 ----- CPU =      7.1401 (sec) ----------------
TotEng   =    -25443.9116 KinEng   =     21187.3836 Temp     =       295.4497 
PotEng   =    -46631.2952 E_bond   =      2562.3328 E_angle  =     10941.7205 
E_dihed  =      5267.2883 E_impro  =       198.8580 E_vdwl   =     -2157.0506 
E_coul   =    210778.6485 E_long   =   -274223.0927 Press    =       -41.4119 
Volume   =    310157.8121 
---------------- Step     1450 ----- CPU =      7.3739 (sec) ----------------
TotEng   =    -24992.8199 KinEng   =     21611.0774 Temp     =       301.3579 
PotEng   =    -46603.8973 E_bond   =      2529.0182 E_angle  =     10970.6439 
E_dihed  =      5197.4491 E_impro  =       216.0107 E_vdwl   =     -1983.7806 
E_coul   =    210684.5648 E_long   =   -274217.8034 Press    =       250.2258 
Volume   =    310141.1875 
---------------- Step     1500 ----- CPU =      7.6104 (sec) ----------------
TotEng   =    -24671.4487 KinEng   =     21769.7483 Temp     =       303.5705 
PotEng   =    -46441.1970 E_bond   =      2619.5979 E_angle  =     11029.0973 
E_dihed  =      5213.2824 E_impro  =       217.9821 E_vdwl   =     -1989.4729 
E_coul   =    210683.1504 E_long   =   -274214.8342 Press    =        40.4664 
Volume   =    310027.3561 
---------------- Step     1550 ----- CPU =      7.8469 (sec) ----------------
TotEng   =    -24786.2601 KinEng   =     21505.2435 Temp     =       299.8821 
PotEng   =    -46291.5036 E_bond   =      2593.6911 E_angle  =     10900.5621 
E_dihed  =      5264.2407 E_impro  =       223.0949 E_vdwl   =     -2052.9840 
E_coul   =    210991.3219 E_long   =   -274211.4302 Press    =       -43.4118 
Volume   =    309804.6553 
---------------- Step     1600 ----- CPU =      8.0848 (sec) ----------------
TotEng   =    -25040.1896 KinEng   =     21407.6263 Temp     =       298.5209 
PotEng   =    -46447.8159 E_bond   =      2566.0146 E_angle  =     10961.8035 
E_dihed  =      5232.5797 E_impro  =       214.9463 E_vdwl   =     -2064.6496 
E_coul   =    210856.0620 E_long   =   -274214.5723 Press    =       298.5433 
Volume   =    309499.4033 
---------------- Step     1650 ----- CPU =      8.3219 (sec) ----------------
TotEng   =    -25236.2711 KinEng   =     21504.9836 Temp     =       299.8785 
PotEng   =    -46741.2547 E_bond   =      2542.2606 E_angle  =     10977.0593 
E_dihed  =      5263.8399 E_impro  =       223.2299 E_vdwl   =     -2150.3143 
E_coul   =    210624.2287 E_long   =   -274221.5587 Press    =      -205.3750 
Volume   =    309166.8136 
---------------- Step     1700 ----- CPU =      8.5584 (sec) ----------------
TotEng   =    -25326.0833 KinEng   =     21519.0045 Temp     =       300.0740 
PotEng   =    -46845.0878 E_bond   =      2541.7230 E_angle  =     11035.2655 
E_dihed  =      5180.5903 E_impro  =       232.3056 E_vdwl   =     -1954.1973 
E_coul   =    210328.5717 E_long   =   -274209.3466 Press    =        -2.9186 
Volume   =    308806.7527 
---------------- Step     1750 ----- CPU =      8.8019 (sec) ----------------
TotEng   =    -25335.2858 KinEng   =     21370.9932 Temp     =       298.0100 
PotEng   =    -46706.2790 E_bond   =      2495.8553 E_angle  =     10989.4521 
E_dihed  =      5291.7766 E_impro  =       229.8162 E_vdwl   =     -1920.6401 
E_coul   =    210412.8748 E_long   =   -274205.4140 Press    =       299.6469 
Volume   =    308418.0501 
---------------- Step     1800 ----- CPU =      9.0400 (sec) ----------------
TotEng   =    -25154.3017 KinEng   =     21488.0029 Temp     =       299.6417 
PotEng   =    -46642.3047 E_bond   =      2618.9855 E_angle  =     11058.4317 
E_dihed  =      5250.8522 E_impro  =       219.6220 E_vdwl   =     -2009.6990 
E_coul   =    210440.0358 E_long   =   -274220.5330 Press    =       -86.7214 
Volume   =    308172.9033 
---------------- Step     1850 ----- CPU =      9.2792 (sec) ----------------
TotEng   =    -24948.9936 KinEng   =     21606.9516 Temp     =       301.3004 
PotEng   =    -46555.9451 E_bond   =      2500.9398 E_angle  =     10963.1295 
E_dihed  =      5239.6491 E_impro  =       221.5673 E_vdwl   =     -2008.2469 
E_coul   =    210737.2386 E_long   =   -274210.2226 Press    =       900.9154 
Volume   =    308035.3918 
---------------- Step     1900 ----- CPU =      9.5235 (sec) ----------------
TotEng   =    -24938.8341 KinEng   =     21767.9820 Temp     =       303.5459 
PotEng   =    -46706.8161 E_bond   =      2554.6631 E_angle  =     10942.5892 
E_dihed  =      5287.0097 E_impro  =       228.6386 E_vdwl   =     -1951.2794 
E_coul   =    210432.1784 E_long   =   -274200.6157 Press    =       -36.3475 
Volume   =    308232.6487 
---------------- Step     1950 ----- CPU =      9.7693 (sec) ----------------
TotEng   =    -25060.8250 KinEng   =     21424.0899 Temp     =       298.7504 
PotEng   =    -46484.9150 E_bond   =      2555.2946 E_angle  =     11019.9883 
E_dihed  =      5259.1537 E_impro  =       215.8529 E_vdwl   =     -2219.4569 
E_coul   =    210890.9027 E_long   =   -274206.6503 Press    =      -481.8427 
Volume   =    308700.1124 
---------------- Step     2000 ----- CPU =     10.0114 (sec) ----------------
TotEng   =    -25117.4373 KinEng   =     21533.6931 Temp     =       300.2788 
PotEng   =    -46651.1304 E_bond   =      2602.2144 E_angle  =     10946.5106 
E_dihed  =      5231.5007 E_impro  =       219.0530 E_vdwl   =     -2303.0794 
E_coul   =    210856.4403 E_long   =   -274203.7701 Press    =      -452.7833 
Volume   =    309072.6524 
---------------- Step     2050 ----- CPU =     10.2574 (sec) ----------------
TotEng   =    -25148.1047 KinEng   =     21421.2128 Temp     =       298.7103 
PotEng   =    -46569.3175 E_bond   =      2586.2122 E_angle  =     10928.1268 
E_dihed  =      5212.3936 E_impro  =       237.9148 E_vdwl   =     -2199.8483 
E_coul   =    210875.7668 E_long   =   -274209.8834 Press    =       -51.8197 
Volume   =    309163.0924 
---------------- Step     2100 ----- CPU =     10.5037 (sec) ----------------
TotEng   =    -25124.8370 KinEng   =     21469.7636 Temp     =       299.3873 
PotEng   =    -46594.6006 E_bond   =      2576.0127 E_angle  =     10964.2352 
E_dihed  =      5220.1278 E_impro  =       232.7441 E_vdwl   =     -2055.2937 
E_coul   =    210682.4964 E_long   =   -274214.9232 Press    =       -60.4032 
Volume   =    309150.9583 
---------------- Step     2150 ----- CPU =     10.7466 (sec) ----------------
TotEng   =    -25091.0967 KinEng   =     21323.5222 Temp     =       297.3481 
PotEng   =    -46414.6189 E_bond   =      2649.0864 E_angle  =     11106.0108 
E_dihed  =      5213.2173 E_impro  =       255.2814 E_vdwl   =     -2089.1313 
E_coul   =    210664.9669 E_long   =   -274214.0504 Press    =      -212.4966 
Volume   =    309357.0304 
---------------- Step     2200 ----- CPU =     10.9911 (sec) ----------------
TotEng   =    -25023.1739 KinEng   =     21636.1376 Temp     =       301.7074 
PotEng   =    -46659.3116 E_bond   =      2572.6166 E_angle  =     11030.2127 
E_dihed  =      5158.5355 E_impro  =       232.6871 E_vdwl   =     -2289.6141 
E_coul   =    210857.2216 E_long   =   -274220.9709 Press    =      -229.4682 
Volume   =    309567.7698 
---------------- Step     2250 ----- CPU =     11.2305 (sec) ----------------
TotEng   =    -24947.7496 KinEng   =     21772.8305 Temp     =       303.6135 
PotEng   =    -46720.5801 E_bond   =      2567.5311 E_angle  =     10941.4607 
E_dihed  =      5254.9081 E_impro  =       230.4014 E_vdwl   =     -2041.4665 
E_coul   =    210541.6357 E_long   =   -274215.0507 Press    =        -2.7684 
Volume   =    309638.3236 
---------------- Step     2300 ----- CPU =     11.4731 (sec) ----------------
TotEng   =    -25055.5699 KinEng   =     21573.1827 Temp     =       300.8295 
PotEng   =    -46628.7526 E_bond   =      2527.8490 E_angle  =     11005.3719 
E_dihed  =      5206.1570 E_impro  =       227.8925 E_vdwl   =     -2116.8033 
E_coul   =    210738.5166 E_long   =   -274217.7363 Press    =       183.7819 
Volume   =    309701.3376 
---------------- Step     2350 ----- CPU =     11.7133 (sec) ----------------
TotEng   =    -25163.8027 KinEng   =     21573.0485 Temp     =       300.8276 
PotEng   =    -46736.8512 E_bond   =      2582.7583 E_angle  =     10923.3807 
E_dihed  =      5203.2262 E_impro  =       213.6446 E_vdwl   =     -2181.3114 
E_coul   =    210737.8433 E_long   =   -274216.3930 Press    =      -523.0531 
Volume   =    309828.6395 
---------------- Step     2400 ----- CPU =     11.9558 (sec) ----------------
TotEng   =    -25239.4147 KinEng   =     21371.8371 Temp     =       298.0218 
PotEng   =    -46611.2518 E_bond   =      2523.8530 E_angle  =     11179.6293 
E_dihed  =      5217.4696 E_impro  =       206.1074 E_vdwl   =     -2215.5322 
E_coul   =    210688.1549 E_long   =   -274210.9338 Press    =      -400.9185 
Volume   =    309930.9416 
---------------- Step     2450 ----- CPU =     12.2027 (sec) ----------------
TotEng   =    -25187.6733 KinEng   =     21445.6185 Temp     =       299.0507 
PotEng   =    -46633.2918 E_bond   =      2539.7583 E_angle  =     10980.4818 
E_dihed  =      5282.4586 E_impro  =       235.6527 E_vdwl   =     -2046.7664 
E_coul   =    210594.9765 E_long   =   -274219.8532 Press    =        80.1279 
Volume   =    309852.5008 
---------------- Step     2500 ----- CPU =     12.4475 (sec) ----------------
TotEng   =    -25148.6432 KinEng   =     21594.6086 Temp     =       301.1283 
PotEng   =    -46743.2518 E_bond   =      2563.0265 E_angle  =     10968.5415 
E_dihed  =      5232.8848 E_impro  =       229.7787 E_vdwl   =     -2183.7678 
E_coul   =    210666.1309 E_long   =   -274219.8463 Press    =      -297.5438 
Volume   =    309741.3999 
---------------- Step     2550 ----- CPU =     12.6896 (sec) ----------------
TotEng   =    -25166.2089 KinEng   =     21396.2640 Temp     =       298.3624 
PotEng   =    -46562.4730 E_bond   =      2558.0157 E_angle  =     11020.7746 
E_dihed  =      5215.9859 E_impro  =       232.7256 E_vdwl   =     -2116.7190 
E_coul   =    210737.4334 E_long   =   -274210.6892 Press    =       155.8057 
Volume   =    309524.9786 
---------------- Step     2600 ----- CPU =     12.9302 (sec) ----------------
TotEng   =    -25103.2109 KinEng   =     21441.6871 Temp     =       298.9958 
PotEng   =    -46544.8980 E_bond   =      2545.6222 E_angle  =     10998.4565 
E_dihed  =      5254.4360 E_impro  =       218.1735 E_vdwl   =     -2090.5108 
E_coul   =    210749.3770 E_long   =   -274220.4524 Press    =       314.6903 
Volume   =    309343.1629 
---------------- Step     2650 ----- CPU =     13.1734 (sec) ----------------
TotEng   =    -24995.5737 KinEng   =     21609.4939 Temp     =       301.3358 
PotEng   =    -46605.0675 E_bond   =      2570.7920 E_angle  =     11027.2207 
E_dihed  =      5221.5048 E_impro  =       217.9991 E_vdwl   =     -2159.2894 
E_coul   =    210735.0160 E_long   =   -274218.3108 Press    =       172.9635 
Volume   =    309277.5816 
---------------- Step     2700 ----- CPU =     13.4150 (sec) ----------------
TotEng   =    -24912.4784 KinEng   =     21600.4173 Temp     =       301.2093 
PotEng   =    -46512.8957 E_bond   =      2560.7341 E_angle  =     11133.6833 
E_dihed  =      5272.4537 E_impro  =       236.5519 E_vdwl   =     -1960.9132 
E_coul   =    210462.0243 E_long   =   -274217.4300 Press    =       556.8371 
Volume   =    309273.9688 
---------------- Step     2750 ----- CPU =     13.6574 (sec) ----------------
TotEng   =    -25071.8485 KinEng   =     21452.0885 Temp     =       299.1409 
PotEng   =    -46523.9370 E_bond   =      2567.9872 E_angle  =     11097.5291 
E_dihed  =      5268.5558 E_impro  =       230.4417 E_vdwl   =     -1875.0259 
E_coul   =    210400.0035 E_long   =   -274213.4284 Press    =        50.6909 
Volume   =    309440.7691 
---------------- Step     2800 ----- CPU =     13.8987 (sec) ----------------
TotEng   =    -25372.2022 KinEng   =     21419.5430 Temp     =       298.6870 
PotEng   =    -46791.7451 E_bond   =      2583.0739 E_angle  =     10912.8910 
E_dihed  =      5247.9144 E_impro  =       213.2482 E_vdwl   =     -2282.2925 
E_coul   =    210766.5396 E_long   =   -274233.1198 Press    =       -29.9379 
Volume   =    309636.0531 
---------------- Step     2850 ----- CPU =     14.1413 (sec) ----------------
TotEng   =    -25441.1755 KinEng   =     21330.6555 Temp     =       297.4475 
PotEng   =    -46771.8311 E_bond   =      2605.5145 E_angle  =     11051.5208 
E_dihed  =      5202.1342 E_impro  =       221.7078 E_vdwl   =     -2071.4864 
E_coul   =    210446.9739 E_long   =   -274228.1958 Press    =       120.2180 
Volume   =    309620.5139 
---------------- Step     2900 ----- CPU =     14.3794 (sec) ----------------
TotEng   =    -25257.4617 KinEng   =     21477.0339 Temp     =       299.4887 
PotEng   =    -46734.4956 E_bond   =      2586.4727 E_angle  =     11030.1287 
E_dihed  =      5219.7190 E_impro  =       228.8919 E_vdwl   =     -2080.1751 
E_coul   =    210502.8750 E_long   =   -274222.4078 Press    =        -9.6448 
Volume   =    309435.8271 
---------------- Step     2950 ----- CPU =     14.6213 (sec) ----------------
TotEng   =    -24987.7550 KinEng   =     21477.8095 Temp     =       299.4995 
PotEng   =    -46465.5646 E_bond   =      2540.9547 E_angle  =     11073.6813 
E_dihed  =      5268.1036 E_impro  =       237.5409 E_vdwl   =     -1893.5662 
E_coul   =    210522.8051 E_long   =   -274215.0839 Press    =       437.9348 
Volume   =    309141.6280 
---------------- Step     3000 ----- CPU =     14.8579 (sec) ----------------
TotEng   =    -24889.4177 KinEng   =     21657.1426 Temp     =       302.0003 
PotEng   =    -46546.5604 E_bond   =      2513.6142 E_angle  =     11044.2922 
E_dihed  =      5225.3471 E_impro  =       220.4821 E_vdwl   =     -2053.2873 
E_coul   =    210713.6769 E_long   =   -274210.6855 Press    =        90.1820 
Volume   =    309139.8051 
---------------- Step     3050 ----- CPU =     15.1012 (sec) ----------------
TotEng   =    -25007.7502 KinEng   =     21465.3483 Temp     =       299.3258 
PotEng   =    -46473.0984 E_bond   =      2639.7533 E_angle  =     11063.6936 
E_dihed  =      5284.3813 E_impro  =       243.7331 E_vdwl   =     -2169.9337 
E_coul   =    210688.3170 E_long   =   -274223.0431 Press    =        79.2251 
Volume   =    309113.2339 
---------------- Step     3100 ----- CPU =     15.3410 (sec) ----------------
TotEng   =    -25169.0970 KinEng   =     21610.8132 Temp     =       301.3542 
PotEng   =    -46779.9103 E_bond   =      2552.8702 E_angle  =     10948.8907 
E_dihed  =      5215.4956 E_impro  =       224.1995 E_vdwl   =     -2025.6531 
E_coul   =    210510.0598 E_long   =   -274205.7729 Press    =      -134.1265 
Volume   =    309196.8509 
---------------- Step     3150 ----- CPU =     15.5846 (sec) ----------------
TotEng   =    -25274.4490 KinEng   =     21439.8391 Temp     =       298.9701 
PotEng   =    -46714.2881 E_bond   =      2564.9832 E_angle  =     11103.1292 
E_dihed  =      5212.2564 E_impro  =       207.7076 E_vdwl   =     -1920.3981 
E_coul   =    210324.0733 E_long   =   -274206.0398 Press    =       181.3797 
Volume   =    309295.9853 
---------------- Step     3200 ----- CPU =     15.8221 (sec) ----------------
TotEng   =    -25321.8722 KinEng   =     21373.4601 Temp     =       298.0444 
PotEng   =    -46695.3323 E_bond   =      2600.1009 E_angle  =     11002.0729 
E_dihed  =      5266.9856 E_impro  =       218.1712 E_vdwl   =     -2156.6212 
E_coul   =    210603.6344 E_long   =   -274229.6760 Press    =       120.3405 
Volume   =    309406.4268 
---------------- Step     3250 ----- CPU =     16.0614 (sec) ----------------
TotEng   =    -25191.8079 KinEng   =     21459.2386 Temp     =       299.2406 
PotEng   =    -46651.0465 E_bond   =      2561.5180 E_angle  =     11066.5825 
E_dihed  =      5248.6740 E_impro  =       235.9098 E_vdwl   =     -2152.1064 
E_coul   =    210592.6322 E_long   =   -274204.2566 Press    =       -97.7246 
Volume   =    309565.0745 
---------------- Step     3300 ----- CPU =     16.3029 (sec) ----------------
TotEng   =    -24995.6196 KinEng   =     21693.9113 Temp     =       302.5130 
PotEng   =    -46689.5309 E_bond   =      2592.9590 E_angle  =     10988.9946 
E_dihed  =      5269.9836 E_impro  =       216.9611 E_vdwl   =     -2086.1064 
E_coul   =    210538.5956 E_long   =   -274210.9184 Press    =       -98.9041 
Volume   =    309460.9517 
---------------- Step     3350 ----- CPU =     16.5462 (sec) ----------------
TotEng   =    -24930.5306 KinEng   =     21662.2566 Temp     =       302.0716 
PotEng   =    -46592.7872 E_bond   =      2589.8708 E_angle  =     11089.6574 
E_dihed  =      5253.0272 E_impro  =       207.8545 E_vdwl   =     -2266.3101 
E_coul   =    210743.1293 E_long   =   -274210.0164 Press    =      -203.5095 
Volume   =    309219.9081 
---------------- Step     3400 ----- CPU =     16.7895 (sec) ----------------
TotEng   =    -25064.1211 KinEng   =     21545.9516 Temp     =       300.4498 
PotEng   =    -46610.0727 E_bond   =      2504.7432 E_angle  =     11081.1759 
E_dihed  =      5289.8646 E_impro  =       225.5237 E_vdwl   =     -1937.3145 
E_coul   =    210442.3803 E_long   =   -274216.4458 Press    =         5.1711 
Volume   =    308782.0820 
---------------- Step     3450 ----- CPU =     17.0298 (sec) ----------------
TotEng   =    -25272.8209 KinEng   =     21535.0288 Temp     =       300.2974 
PotEng   =    -46807.8497 E_bond   =      2514.1067 E_angle  =     10935.9756 
E_dihed  =      5256.6503 E_impro  =       233.0644 E_vdwl   =     -1913.2098 
E_coul   =    210375.5801 E_long   =   -274210.0171 Press    =       124.4098 
Volume   =    308395.6199 
---------------- Step     3500 ----- CPU =     17.2705 (sec) ----------------
TotEng   =    -25378.4252 KinEng   =     21513.4891 Temp     =       299.9971 
PotEng   =    -46891.9143 E_bond   =      2526.4374 E_angle  =     10931.1164 
E_dihed  =      5251.0749 E_impro  =       214.9875 E_vdwl   =     -1980.9658 
E_coul   =    210382.8904 E_long   =   -274217.4551 Press    =       179.8963 
Volume   =    308201.0209 
---------------- Step     3550 ----- CPU =     17.5189 (sec) ----------------
TotEng   =    -25365.3726 KinEng   =     21491.6898 Temp     =       299.6931 
PotEng   =    -46857.0624 E_bond   =      2524.0249 E_angle  =     10977.6450 
E_dihed  =      5208.4733 E_impro  =       235.2768 E_vdwl   =     -1912.4012 
E_coul   =    210315.8313 E_long   =   -274205.9127 Press    =        98.4620 
Volume   =    308191.7405 
---------------- Step     3600 ----- CPU =     17.7599 (sec) ----------------
TotEng   =    -25230.9590 KinEng   =     21568.5221 Temp     =       300.7645 
PotEng   =    -46799.4811 E_bond   =      2556.6634 E_angle  =     10996.7946 
E_dihed  =      5253.7414 E_impro  =       221.0513 E_vdwl   =     -2079.7259 
E_coul   =    210467.4073 E_long   =   -274215.4133 Press    =       263.7744 
Volume   =    308204.7450 
---------------- Step     3650 ----- CPU =     18.0015 (sec) ----------------
TotEng   =    -25048.1026 KinEng   =     21481.4808 Temp     =       299.5507 
PotEng   =    -46529.5834 E_bond   =      2591.6936 E_angle  =     11257.1418 
E_dihed  =      5198.8100 E_impro  =       228.9935 E_vdwl   =     -2144.3192 
E_coul   =    210565.2946 E_long   =   -274227.1978 Press    =       274.2109 
Volume   =    308207.6123 
---------------- Step     3700 ----- CPU =     18.2466 (sec) ----------------
TotEng   =    -25059.8434 KinEng   =     21588.7349 Temp     =       301.0464 
PotEng   =    -46648.5784 E_bond   =      2576.0235 E_angle  =     11043.3821 
E_dihed  =      5255.4943 E_impro  =       215.7923 E_vdwl   =     -2050.4013 
E_coul   =    210530.2621 E_long   =   -274219.1313 Press    =       -26.3543 
Volume   =    308162.0269 
---------------- Step     3750 ----- CPU =     18.4868 (sec) ----------------
TotEng   =    -25233.3478 KinEng   =     21514.3906 Temp     =       300.0097 
PotEng   =    -46747.7384 E_bond   =      2521.3026 E_angle  =     11040.9260 
E_dihed  =      5280.4813 E_impro  =       219.6600 E_vdwl   =     -2035.2890 
E_coul   =    210444.3892 E_long   =   -274219.2085 Press    =       228.5704 
Volume   =    308186.4558 
---------------- Step     3800 ----- CPU =     18.7337 (sec) ----------------
TotEng   =    -25375.2363 KinEng   =     21458.8229 Temp     =       299.2348 
PotEng   =    -46834.0592 E_bond   =      2621.8264 E_angle  =     10881.5708 
E_dihed  =      5296.3987 E_impro  =       215.3361 E_vdwl   =     -2242.5263 
E_coul   =    210621.5815 E_long   =   -274228.2463 Press    =      -287.4818 
Volume   =    308253.6743 
---------------- Step     3850 ----- CPU =     18.9738 (sec) ----------------
TotEng   =    -25361.1417 KinEng   =     21473.2888 Temp     =       299.4365 
PotEng   =    -46834.4306 E_bond   =      2564.7852 E_angle  =     10886.5789 
E_dihed  =      5278.8252 E_impro  =       231.0340 E_vdwl   =     -1764.8549 
E_coul   =    210177.3826 E_long   =   -274208.1816 Press    =       496.1329 
Volume   =    308334.4033 
---------------- Step     3900 ----- CPU =     19.2126 (sec) ----------------
TotEng   =    -25279.6430 KinEng   =     21443.7799 Temp     =       299.0250 
PotEng   =    -46723.4229 E_bond   =      2564.6143 E_angle  =     10962.4971 
E_dihed  =      5223.3411 E_impro  =       230.5715 E_vdwl   =     -1801.6970 
E_coul   =    210312.1888 E_long   =   -274214.9386 Press    =        63.6648 
Volume   =    308602.2666 
---------------- Step     3950 ----- CPU =     19.4536 (sec) ----------------
TotEng   =    -25135.2758 KinEng   =     21637.7689 Temp     =       301.7301 
PotEng   =    -46773.0447 E_bond   =      2575.2413 E_angle  =     11026.7292 
E_dihed  =      5296.0105 E_impro  =       235.2934 E_vdwl   =     -2053.5717 
E_coul   =    210362.2406 E_long   =   -274214.9880 Press    =       111.9333 
Volume   =    309091.0102 
---------------- Step     4000 ----- CPU =     19.6977 (sec) ----------------
TotEng   =    -25100.5182 KinEng   =     21426.6854 Temp     =       298.7866 
PotEng   =    -46527.2036 E_bond   =      2601.8878 E_angle  =     11077.2804 
E_dihed  =      5248.6255 E_impro  =       235.1377 E_vdwl   =     -1995.0246 
E_coul   =    210528.1600 E_long   =   -274223.2703 Press    =        95.1729 
Volume   =    309488.9092 
---------------- Step     4050 ----- CPU =     19.9431 (sec) ----------------
TotEng   =    -25158.1322 KinEng   =     21609.9744 Temp     =       301.3425 
PotEng   =    -46768.1067 E_bond   =      2571.8284 E_angle  =     10872.9954 
E_dihed  =      5260.9653 E_impro  =       215.3079 E_vdwl   =     -2013.6522 
E_coul   =    210550.1736 E_long   =   -274225.7251 Press    =      -163.8849 
Volume   =    309787.8794 
---------------- Step     4100 ----- CPU =     20.1822 (sec) ----------------
TotEng   =    -25166.9222 KinEng   =     21561.6358 Temp     =       300.6685 
PotEng   =    -46728.5580 E_bond   =      2590.2546 E_angle  =     10983.1191 
E_dihed  =      5240.5780 E_impro  =       216.0755 E_vdwl   =     -2088.8722 
E_coul   =    210549.9534 E_long   =   -274219.6665 Press    =      -407.3125 
Volume   =    309921.5894 
---------------- Step     4150 ----- CPU =     20.4226 (sec) ----------------
TotEng   =    -25176.3161 KinEng   =     21464.2755 Temp     =       299.3108 
PotEng   =    -46640.5916 E_bond   =      2584.5163 E_angle  =     11152.4536 
E_dihed  =      5268.4836 E_impro  =       238.3332 E_vdwl   =     -1959.7889 
E_coul   =    210267.9326 E_long   =   -274192.5220 Press    =       113.0131 
Volume   =    309887.9059 
---------------- Step     4200 ----- CPU =     20.6585 (sec) ----------------
TotEng   =    -25191.1063 KinEng   =     21485.8610 Temp     =       299.6118 
PotEng   =    -46676.9674 E_bond   =      2562.5608 E_angle  =     10964.1585 
E_dihed  =      5205.4710 E_impro  =       234.2595 E_vdwl   =     -1881.1843 
E_coul   =    210453.2707 E_long   =   -274215.5035 Press    =       253.1860 
Volume   =    309605.9555 
---------------- Step     4250 ----- CPU =     20.8937 (sec) ----------------
TotEng   =    -25184.1934 KinEng   =     21561.8010 Temp     =       300.6708 
PotEng   =    -46745.9945 E_bond   =      2506.1776 E_angle  =     11170.9037 
E_dihed  =      5252.7436 E_impro  =       220.2152 E_vdwl   =     -1907.8271 
E_coul   =    210230.8685 E_long   =   -274219.0760 Press    =       -45.4793 
Volume   =    309359.4529 
---------------- Step     4300 ----- CPU =     21.1322 (sec) ----------------
TotEng   =    -25228.9181 KinEng   =     21549.7633 Temp     =       300.5029 
PotEng   =    -46778.6815 E_bond   =      2558.4859 E_angle  =     10997.7546 
E_dihed  =      5238.5983 E_impro  =       239.1787 E_vdwl   =     -1911.7765 
E_coul   =    210320.6234 E_long   =   -274221.5459 Press    =        32.6780 
Volume   =    309231.4670 
---------------- Step     4350 ----- CPU =     21.3668 (sec) ----------------
TotEng   =    -25221.8527 KinEng   =     21467.5604 Temp     =       299.3566 
PotEng   =    -46689.4131 E_bond   =      2622.0086 E_angle  =     11137.8677 
E_dihed  =      5194.3461 E_impro  =       250.2574 E_vdwl   =     -2010.1647 
E_coul   =    210346.3023 E_long   =   -274230.0304 Press    =       160.9038 
Volume   =    309185.4071 
---------------- Step     4400 ----- CPU =     21.6011 (sec) ----------------
TotEng   =    -25257.6548 KinEng   =     21522.9541 Temp     =       300.1291 
PotEng   =    -46780.6089 E_bond   =      2601.1132 E_angle  =     11056.4202 
E_dihed  =      5234.8478 E_impro  =       223.5353 E_vdwl   =     -1999.6556 
E_coul   =    210338.6574 E_long   =   -274235.5272 Press    =      -268.7242 
Volume   =    309142.2201 
---------------- Step     4450 ----- CPU =     21.8406 (sec) ----------------
TotEng   =    -25264.0351 KinEng   =     21504.9915 Temp     =       299.8786 
PotEng   =    -46769.0265 E_bond   =      2536.7883 E_angle  =     11038.6737 
E_dihed  =      5289.5535 E_impro  =       208.8054 E_vdwl   =     -1852.6517 
E_coul   =    210228.5115 E_long   =   -274218.7073 Press    =       144.2117 
Volume   =    309057.2233 
---------------- Step     4500 ----- CPU =     22.0774 (sec) ----------------
TotEng   =    -25202.6965 KinEng   =     21631.7405 Temp     =       301.6460 
PotEng   =    -46834.4370 E_bond   =      2541.1975 E_angle  =     11076.5938 
E_dihed  =      5273.5722 E_impro  =       214.7732 E_vdwl   =     -1966.4160 
E_coul   =    210221.2707 E_long   =   -274195.4284 Press    =       219.2700 
Volume   =    309041.7077 
---------------- Step     4550 ----- CPU =     22.3128 (sec) ----------------
TotEng   =    -25307.8317 KinEng   =     21558.9471 Temp     =       300.6310 
PotEng   =    -46866.7787 E_bond   =      2573.2634 E_angle  =     11022.2544 
E_dihed  =      5258.4933 E_impro  =       215.0782 E_vdwl   =     -1796.7492 
E_coul   =    210068.8309 E_long   =   -274207.9498 Press    =       140.4947 
Volume   =    309103.5988 
---------------- Step     4600 ----- CPU =     22.5486 (sec) ----------------
TotEng   =    -25442.0221 KinEng   =     21376.2405 Temp     =       298.0832 
PotEng   =    -46818.2626 E_bond   =      2556.9495 E_angle  =     11063.4206 
E_dihed  =      5266.1513 E_impro  =       236.4364 E_vdwl   =     -1907.3587 
E_coul   =    210178.5546 E_long   =   -274212.4164 Press    =      -132.8840 
Volume   =    309238.8529 
---------------- Step     4650 ----- CPU =     22.7912 (sec) ----------------
TotEng   =    -25473.5983 KinEng   =     21268.0964 Temp     =       296.5752 
PotEng   =    -46741.6947 E_bond   =      2552.4150 E_angle  =     11067.8220 
E_dihed  =      5249.2730 E_impro  =       236.0377 E_vdwl   =     -1874.5003 
E_coul   =    210236.8849 E_long   =   -274209.6270 Press    =       -49.5676 
Volume   =    309345.1051 
---------------- Step     4700 ----- CPU =     23.0281 (sec) ----------------
TotEng   =    -25296.0844 KinEng   =     21479.2511 Temp     =       299.5196 
PotEng   =    -46775.3354 E_bond   =      2633.4299 E_angle  =     11052.9911 
E_dihed  =      5270.0080 E_impro  =       218.3924 E_vdwl   =     -2099.2166 
E_coul   =    210356.5993 E_long   =   -274207.5395 Press    =        13.9531 
Volume   =    309346.2573 
---------------- Step     4750 ----- CPU =     23.2640 (sec) ----------------
TotEng   =    -25090.5605 KinEng   =     21639.1750 Temp     =       301.7497 
PotEng   =    -46729.7355 E_bond   =      2629.4557 E_angle  =     10978.0264 
E_dihed  =      5269.9807 E_impro  =       224.6569 E_vdwl   =     -2052.1675 
E_coul   =    210423.3839 E_long   =   -274203.0717 Press    =       102.2131 
Volume   =    309198.9918 
---------------- Step     4800 ----- CPU =     23.5048 (sec) ----------------
TotEng   =    -24943.5352 KinEng   =     21638.0992 Temp     =       301.7347 
PotEng   =    -46581.6345 E_bond   =      2621.4502 E_angle  =     11134.4583 
E_dihed  =      5266.4320 E_impro  =       219.9201 E_vdwl   =     -1975.0163 
E_coul   =    210370.4872 E_long   =   -274219.3662 Press    =       -41.9803 
Volume   =    308959.7497 
---------------- Step     4850 ----- CPU =     23.7466 (sec) ----------------
TotEng   =    -25103.0709 KinEng   =     21450.7686 Temp     =       299.1225 
PotEng   =    -46553.8395 E_bond   =      2605.2155 E_angle  =     11125.8396 
E_dihed  =      5311.4406 E_impro  =       227.9063 E_vdwl   =     -2102.7972 
E_coul   =    210493.8026 E_long   =   -274215.2468 Press    =      -178.3020 
Volume   =    308719.2535 
---------------- Step     4900 ----- CPU =     23.9864 (sec) ----------------
TotEng   =    -25357.6195 KinEng   =     21523.1950 Temp     =       300.1324 
PotEng   =    -46880.8145 E_bond   =      2545.6911 E_angle  =     10979.3206 
E_dihed  =      5223.3594 E_impro  =       222.2574 E_vdwl   =     -1988.4169 
E_coul   =    210344.9686 E_long   =   -274207.9948 Press    =       285.8439 
Volume   =    308454.4730 
---------------- Step     4950 ----- CPU =     24.2251 (sec) ----------------
TotEng   =    -25505.1488 KinEng   =     21347.4154 Temp     =       297.6812 
PotEng   =    -46852.5643 E_bond   =      2513.3887 E_angle  =     11074.1118 
E_dihed  =      5238.3095 E_impro  =       212.8024 E_vdwl   =     -1872.5836 
E_coul   =    210195.6918 E_long   =   -274214.2849 Press    =       190.3564 
Volume   =    308410.5263 
---------------- Step     5000 ----- CPU =     24.4657 (sec) ----------------
TotEng   =    -25400.3736 KinEng   =     21424.0551 Temp     =       298.7500 
PotEng   =    -46824.4287 E_bond   =      2617.7917 E_angle  =     11050.7429 
E_dihed  =      5300.1590 E_impro  =       212.3721 E_vdwl   =     -2142.1439 
E_coul   =    210345.6388 E_long   =   -274208.9893 Press    =      -346.1325 
Volume   =    308332.4104 
---------------- Step     5050 ----- CPU =     24.7044 (sec) ----------------
TotEng   =    -25112.4273 KinEng   =     21696.5946 Temp     =       302.5504 
PotEng   =    -46809.0219 E_bond   =      2556.3717 E_angle  =     11176.9205 
E_dihed  =      5339.8325 E_impro  =       204.3835 E_vdwl   =     -2181.4411 
E_coul   =    210303.0368 E_long   =   -274208.1258 Press    =        18.3816 
Volume   =    308107.5986 
---------------- Step     5100 ----- CPU =     24.9476 (sec) ----------------
TotEng   =    -24964.4339 KinEng   =     21644.3863 Temp     =       301.8224 
PotEng   =    -46608.8202 E_bond   =      2594.0379 E_angle  =     11116.3934 
E_dihed  =      5338.1972 E_impro  =       210.1365 E_vdwl   =     -1789.8102 
E_coul   =    210130.5845 E_long   =   -274208.3596 Press    =       317.3739 
Volume   =    307892.8161 
---------------- Step     5150 ----- CPU =     25.1834 (sec) ----------------
TotEng   =    -25116.4889 KinEng   =     21609.0398 Temp     =       301.3295 
PotEng   =    -46725.5287 E_bond   =      2572.4351 E_angle  =     11089.8467 
E_dihed  =      5308.2564 E_impro  =       226.5445 E_vdwl   =     -2091.0387 
E_coul   =    210375.6047 E_long   =   -274207.1774 Press    =       276.2950 
Volume   =    307925.3736 
---------------- Step     5200 ----- CPU =     25.4190 (sec) ----------------
TotEng   =    -25459.3232 KinEng   =     21547.3062 Temp     =       300.4686 
PotEng   =    -47006.6294 E_bond   =      2512.0789 E_angle  =     11048.6195 
E_dihed  =      5234.5428 E_impro  =       212.3511 E_vdwl   =     -1822.2231 
E_coul   =    210015.9810 E_long   =   -274207.9797 Press    =       176.4216 
Volume   =    308062.8839 
---------------- Step     5250 ----- CPU =     25.6591 (sec) ----------------
TotEng   =    -25709.2474 KinEng   =     21362.2870 Temp     =       297.8886 
PotEng   =    -47071.5344 E_bond   =      2558.1260 E_angle  =     10995.0211 
E_dihed  =      5282.7948 E_impro  =       217.6757 E_vdwl   =     -2021.2327 
E_coul   =    210109.5293 E_long   =   -274213.4486 Press    =        15.5181 
Volume   =    308334.4436 
---------------- Step     5300 ----- CPU =     25.8936 (sec) ----------------
TotEng   =    -25679.3656 KinEng   =     21227.2100 Temp     =       296.0050 
PotEng   =    -46906.5755 E_bond   =      2615.5959 E_angle  =     10943.4631 
E_dihed  =      5302.1358 E_impro  =       219.9922 E_vdwl   =     -1906.8511 
E_coul   =    210121.7502 E_long   =   -274202.6617 Press    =       242.1171 
Volume   =    308576.4592 
---------------- Step     5350 ----- CPU =     26.1291 (sec) ----------------
TotEng   =    -25335.2165 KinEng   =     21514.7498 Temp     =       300.0147 
PotEng   =    -46849.9663 E_bond   =      2523.8479 E_angle  =     11007.3274 
E_dihed  =      5261.7221 E_impro  =       231.2195 E_vdwl   =     -1857.8891 
E_coul   =    210200.9306 E_long   =   -274217.1246 Press    =       125.1803 
Volume   =    308798.8145 
---------------- Step     5400 ----- CPU =     26.3648 (sec) ----------------
TotEng   =    -24996.0089 KinEng   =     21559.5341 Temp     =       300.6392 
PotEng   =    -46555.5430 E_bond   =      2632.3747 E_angle  =     11093.9191 
E_dihed  =      5296.8587 E_impro  =       211.9374 E_vdwl   =     -1965.3361 
E_coul   =    210384.1377 E_long   =   -274209.4346 Press    =        95.2053 
Volume   =    308991.2906 
---------------- Step     5450 ----- CPU =     26.6046 (sec) ----------------
TotEng   =    -24933.9012 KinEng   =     21626.0580 Temp     =       301.5668 
PotEng   =    -46559.9592 E_bond   =      2577.8799 E_angle  =     11105.7034 
E_dihed  =      5294.8359 E_impro  =       222.7169 E_vdwl   =     -2032.6910 
E_coul   =    210491.1333 E_long   =   -274219.5376 Press    =      -229.2250 
Volume   =    309232.6253 
---------------- Step     5500 ----- CPU =     26.8392 (sec) ----------------
TotEng   =    -25173.3670 KinEng   =     21503.8330 Temp     =       299.8624 
PotEng   =    -46677.2000 E_bond   =      2587.9894 E_angle  =     11061.1952 
E_dihed  =      5270.7375 E_impro  =       226.0232 E_vdwl   =     -1981.3824 
E_coul   =    210377.5602 E_long   =   -274219.3232 Press    =       170.6096 
Volume   =    309395.5036 
---------------- Step     5550 ----- CPU =     27.0715 (sec) ----------------
TotEng   =    -25474.1617 KinEng   =     21518.3488 Temp     =       300.0648 
PotEng   =    -46992.5106 E_bond   =      2556.8330 E_angle  =     10933.4090 
E_dihed  =      5288.0229 E_impro  =       222.7533 E_vdwl   =     -2004.4672 
E_coul   =    210220.8554 E_long   =   -274209.9168 Press    =      -103.1773 
Volume   =    309599.7080 
---------------- Step     5600 ----- CPU =     27.3092 (sec) ----------------
TotEng   =    -25640.8322 KinEng   =     21495.2641 Temp     =       299.7429 
PotEng   =    -47136.0964 E_bond   =      2484.9033 E_angle  =     10945.2052 
E_dihed  =      5264.3309 E_impro  =       213.5950 E_vdwl   =     -1971.7145 
E_coul   =    210138.7133 E_long   =   -274211.1296 Press    =      -304.0278 
Volume   =    309901.9939 
---------------- Step     5650 ----- CPU =     27.5381 (sec) ----------------
TotEng   =    -25449.6317 KinEng   =     21386.0135 Temp     =       298.2195 
PotEng   =    -46835.6452 E_bond   =      2583.2691 E_angle  =     10982.4694 
E_dihed  =      5270.3989 E_impro  =       202.7148 E_vdwl   =     -2165.8478 
E_coul   =    210508.7260 E_long   =   -274217.3756 Press    =       -27.0661 
Volume   =    310180.0356 
---------------- Step     5700 ----- CPU =     27.7713 (sec) ----------------
TotEng   =    -25007.5935 KinEng   =     21591.8272 Temp     =       301.0895 
PotEng   =    -46599.4207 E_bond   =      2603.2306 E_angle  =     11032.3636 
E_dihed  =      5294.9127 E_impro  =       215.2911 E_vdwl   =     -1862.8085 
E_coul   =    210328.6818 E_long   =   -274211.0921 Press    =       -56.3006 
Volume   =    310212.5739 
---------------- Step     5750 ----- CPU =     28.0018 (sec) ----------------
TotEng   =    -24713.2251 KinEng   =     21604.4113 Temp     =       301.2650 
PotEng   =    -46317.6364 E_bond   =      2579.2354 E_angle  =     11176.9722 
E_dihed  =      5380.7879 E_impro  =       217.4234 E_vdwl   =     -2123.8730 
E_coul   =    210661.4054 E_long   =   -274209.5877 Press    =         3.3425 
Volume   =    310254.9834 
---------------- Step     5800 ----- CPU =     28.2306 (sec) ----------------
TotEng   =    -24856.1231 KinEng   =     21663.1983 Temp     =       302.0847 
PotEng   =    -46519.3214 E_bond   =      2555.9963 E_angle  =     11098.8416 
E_dihed  =      5281.9260 E_impro  =       240.1501 E_vdwl   =     -2069.9256 
E_coul   =    210572.8264 E_long   =   -274199.1362 Press    =       -15.1195 
Volume   =    310193.5224 
---------------- Step     5850 ----- CPU =     28.4633 (sec) ----------------
TotEng   =    -25218.4746 KinEng   =     21469.9748 Temp     =       299.3903 
PotEng   =    -46688.4494 E_bond   =      2562.7166 E_angle  =     11014.1084 
E_dihed  =      5295.5476 E_impro  =       210.3268 E_vdwl   =     -2077.0045 
E_coul   =    210516.8825 E_long   =   -274211.0268 Press    =      -274.2335 
Volume   =    309985.0081 
---------------- Step     5900 ----- CPU =     28.6933 (sec) ----------------
TotEng   =    -25473.6833 KinEng   =     21428.7884 Temp     =       298.8160 
PotEng   =    -46902.4718 E_bond   =      2562.9080 E_angle  =     10929.1702 
E_dihed  =      5270.5457 E_impro  =       222.7047 E_vdwl   =     -2055.5108 
E_coul   =    210385.0901 E_long   =   -274217.3796 Press    =      -497.2928 
Volume   =    309625.1426 
---------------- Step     5950 ----- CPU =     28.9291 (sec) ----------------
TotEng   =    -25530.1638 KinEng   =     21375.5431 Temp     =       298.0735 
PotEng   =    -46905.7068 E_bond   =      2554.0294 E_angle  =     10907.3796 
E_dihed  =      5279.9284 E_impro  =       253.6254 E_vdwl   =     -1847.6506 
E_coul   =    210164.7740 E_long   =   -274217.7931 Press    =       308.6046 
Volume   =    309305.6312 
---------------- Step     6000 ----- CPU =     29.1628 (sec) ----------------
TotEng   =    -25392.8747 KinEng   =     21437.5025 Temp     =       298.9375 
PotEng   =    -46830.3772 E_bond   =      2622.6321 E_angle  =     11096.8483 
E_dihed  =      5246.7049 E_impro  =       222.7017 E_vdwl   =     -2053.6660 
E_coul   =    210233.2129 E_long   =   -274198.8111 Press    =      -245.2489 
Volume   =    309123.4024 
---------------- Step     6050 ----- CPU =     29.4026 (sec) ----------------
TotEng   =    -25182.0396 KinEng   =     21491.2271 Temp     =       299.6866 
PotEng   =    -46673.2667 E_bond   =      2578.2163 E_angle  =     11228.6341 
E_dihed  =      5286.7726 E_impro  =       208.7152 E_vdwl   =     -2070.5848 
E_coul   =    210318.5819 E_long   =   -274223.6021 Press    =      -220.0727 
Volume   =    308968.3090 
---------------- Step     6100 ----- CPU =     29.6460 (sec) ----------------
TotEng   =    -25096.5251 KinEng   =     21632.2605 Temp     =       301.6533 
PotEng   =    -46728.7856 E_bond   =      2637.6705 E_angle  =     10999.1277 
E_dihed  =      5280.0289 E_impro  =       227.8801 E_vdwl   =     -1807.1768 
E_coul   =    210148.6695 E_long   =   -274214.9855 Press    =       346.6888 
Volume   =    308674.1164 
---------------- Step     6150 ----- CPU =     29.8901 (sec) ----------------
TotEng   =    -25227.3036 KinEng   =     21653.7378 Temp     =       301.9528 
PotEng   =    -46881.0414 E_bond   =      2556.5876 E_angle  =     10992.2540 
E_dihed  =      5297.3777 E_impro  =       229.7532 E_vdwl   =     -1996.6719 
E_coul   =    210266.8732 E_long   =   -274227.2151 Press    =       -55.3206 
Volume   =    308408.4818 
---------------- Step     6200 ----- CPU =     30.1331 (sec) ----------------
TotEng   =    -25450.6111 KinEng   =     21384.8840 Temp     =       298.2037 
PotEng   =    -46835.4951 E_bond   =      2567.1517 E_angle  =     11080.9756 
E_dihed  =      5301.8459 E_impro  =       223.9171 E_vdwl   =     -2186.4909 
E_coul   =    210395.1038 E_long   =   -274217.9982 Press    =      -370.3758 
Volume   =    308172.9839 
---------------- Step     6250 ----- CPU =     30.3812 (sec) ----------------
TotEng   =    -25500.4285 KinEng   =     21431.6217 Temp     =       298.8555 
PotEng   =    -46932.0501 E_bond   =      2538.2300 E_angle  =     11110.4749 
E_dihed  =      5324.3420 E_impro  =       214.4991 E_vdwl   =     -2074.3151 
E_coul   =    210163.1434 E_long   =   -274208.4244 Press    =       459.5455 
Volume   =    308064.4863 
---------------- Step     6300 ----- CPU =     30.6242 (sec) ----------------
TotEng   =    -25345.7162 KinEng   =     21449.0252 Temp     =       299.0982 
PotEng   =    -46794.7414 E_bond   =      2612.4287 E_angle  =     11130.0487 
E_dihed  =      5345.3136 E_impro  =       221.1392 E_vdwl   =     -2253.8832 
E_coul   =    210367.7657 E_long   =   -274217.5541 Press    =      -300.5484 
Volume   =    308084.0572 
---------------- Step     6350 ----- CPU =     30.8660 (sec) ----------------
TotEng   =    -25181.9839 KinEng   =     21517.8427 Temp     =       300.0578 
PotEng   =    -46699.8266 E_bond   =      2666.2656 E_angle  =     11032.1155 
E_dihed  =      5358.1810 E_impro  =       217.0190 E_vdwl   =     -2102.4892 
E_coul   =    210332.9594 E_long   =   -274203.8780 Press    =       150.7054 
Volume   =    307992.9136 
---------------- Step     6400 ----- CPU =     31.1137 (sec) ----------------
TotEng   =    -25087.5428 KinEng   =     21647.2027 Temp     =       301.8617 
PotEng   =    -46734.7454 E_bond   =      2577.0567 E_angle  =     11160.3274 
E_dihed  =      5274.1915 E_impro  =       240.8670 E_vdwl   =     -2068.5704 
E_coul   =    210296.3934 E_long   =   -274215.0109 Press    =       325.6343 
Volume   =    307988.3719 
---------------- Step     6450 ----- CPU =     31.3556 (sec) ----------------
TotEng   =    -25248.9391 KinEng   =     21528.5110 Temp     =       300.2066 
PotEng   =    -46777.4501 E_bond   =      2590.6768 E_angle  =     11000.7988 
E_dihed  =      5304.3339 E_impro  =       233.3550 E_vdwl   =     -2023.7639 
E_coul   =    210327.8091 E_long   =   -274210.6598 Press    =      -143.2170 
Volume   =    308070.5784 
---------------- Step     6500 ----- CPU =     31.5913 (sec) ----------------
TotEng   =    -25456.1021 KinEng   =     21381.5252 Temp     =       298.1569 
PotEng   =    -46837.6273 E_bond   =      2567.3697 E_angle  =     10959.9856 
E_dihed  =      5287.4474 E_impro  =       240.7189 E_vdwl   =     -2012.1530 
E_coul   =    210329.6384 E_long   =   -274210.6344 Press    =       166.3057 
Volume   =    308338.0450 
---------------- Step     6550 ----- CPU =     31.8304 (sec) ----------------
TotEng   =    -25459.0058 KinEng   =     21448.0507 Temp     =       299.0846 
PotEng   =    -46907.0565 E_bond   =      2583.6621 E_angle  =     10906.4815 
E_dihed  =      5342.2573 E_impro  =       219.5966 E_vdwl   =     -1996.5388 
E_coul   =    210247.5715 E_long   =   -274210.0868 Press    =        39.5083 
Volume   =    308464.9143 
---------------- Step     6600 ----- CPU =     32.0719 (sec) ----------------
TotEng   =    -25351.5851 KinEng   =     21361.5225 Temp     =       297.8780 
PotEng   =    -46713.1076 E_bond   =      2592.7284 E_angle  =     11046.7816 
E_dihed  =      5341.5297 E_impro  =       211.8050 E_vdwl   =     -2062.6142 
E_coul   =    210368.6060 E_long   =   -274211.9440 Press    =       -47.7373 
Volume   =    308434.1547 
---------------- Step     6650 ----- CPU =     32.3103 (sec) ----------------
TotEng   =    -25197.0926 KinEng   =     21603.5352 Temp     =       301.2527 
PotEng   =    -46800.6278 E_bond   =      2585.6549 E_angle  =     11061.2049 
E_dihed  =      5307.9101 E_impro  =       234.4726 E_vdwl   =     -2011.4076 
E_coul   =    210242.8845 E_long   =   -274221.3472 Press    =      -136.9520 
Volume   =    308472.8232 
---------------- Step     6700 ----- CPU =     32.5479 (sec) ----------------
TotEng   =    -25213.5035 KinEng   =     21527.8432 Temp     =       300.1972 
PotEng   =    -46741.3466 E_bond   =      2616.7725 E_angle  =     11086.9128 
E_dihed  =      5326.8831 E_impro  =       223.9129 E_vdwl   =     -2055.0905 
E_coul   =    210282.4518 E_long   =   -274223.1892 Press    =      -324.9228 
Volume   =    308511.6030 
---------------- Step     6750 ----- CPU =     32.7906 (sec) ----------------
TotEng   =    -25313.0483 KinEng   =     21556.3705 Temp     =       300.5950 
PotEng   =    -46869.4188 E_bond   =      2644.5925 E_angle  =     10902.5064 
E_dihed  =      5348.4171 E_impro  =       230.0987 E_vdwl   =     -2099.5597 
E_coul   =    210333.9508 E_long   =   -274229.4245 Press    =       -27.2228 
Volume   =    308570.6415 
---------------- Step     6800 ----- CPU =     33.0266 (sec) ----------------
TotEng   =    -25330.1948 KinEng   =     21553.6137 Temp     =       300.5566 
PotEng   =    -46883.8086 E_bond   =      2635.8150 E_angle  =     11062.4407 
E_dihed  =      5282.0670 E_impro  =       228.8105 E_vdwl   =     -1915.0681 
E_coul   =    210054.6488 E_long   =   -274232.5224 Press    =        23.3254 
Volume   =    308485.7002 
---------------- Step     6850 ----- CPU =     33.2627 (sec) ----------------
TotEng   =    -25330.2172 KinEng   =     21377.3864 Temp     =       298.0992 
PotEng   =    -46707.6035 E_bond   =      2630.1243 E_angle  =     11062.1410 
E_dihed  =      5372.2769 E_impro  =       206.4438 E_vdwl   =     -1974.3923 
E_coul   =    210197.8441 E_long   =   -274202.0413 Press    =      -159.4052 
Volume   =    308274.5461 
---------------- Step     6900 ----- CPU =     33.5026 (sec) ----------------
TotEng   =    -25331.2434 KinEng   =     21471.9684 Temp     =       299.4181 
PotEng   =    -46803.2118 E_bond   =      2646.3625 E_angle  =     11123.3746 
E_dihed  =      5250.8620 E_impro  =       209.4510 E_vdwl   =     -1884.4406 
E_coul   =    210052.9618 E_long   =   -274201.7832 Press    =      -108.2863 
Volume   =    308113.9330 
---------------- Step     6950 ----- CPU =     33.7378 (sec) ----------------
TotEng   =    -25386.9206 KinEng   =     21413.6754 Temp     =       298.6052 
PotEng   =    -46800.5960 E_bond   =      2597.5171 E_angle  =     11100.7553 
E_dihed  =      5272.3403 E_impro  =       220.1818 E_vdwl   =     -1780.7433 
E_coul   =    209994.5255 E_long   =   -274205.1726 Press    =       363.4693 
Volume   =    307869.4330 
---------------- Step     7000 ----- CPU =     33.9728 (sec) ----------------
TotEng   =    -25428.7837 KinEng   =     21554.0025 Temp     =       300.5620 
PotEng   =    -46982.7863 E_bond   =      2529.4248 E_angle  =     11107.8373 
E_dihed  =      5258.2394 E_impro  =       233.6846 E_vdwl   =     -1895.7388 
E_coul   =    210014.5626 E_long   =   -274230.7962 Press    =       462.9598 
Volume   =    307754.9175 
---------------- Step     7050 ----- CPU =     34.2135 (sec) ----------------
TotEng   =    -25414.5364 KinEng   =     21622.3146 Temp     =       301.5146 
PotEng   =    -47036.8510 E_bond   =      2552.2323 E_angle  =     11017.3668 
E_dihed  =      5305.4720 E_impro  =       243.3617 E_vdwl   =     -1945.9816 
E_coul   =    210006.3876 E_long   =   -274215.6899 Press    =      -210.2995 
Volume   =    307705.7839 
---------------- Step     7100 ----- CPU =     34.4490 (sec) ----------------
TotEng   =    -25463.9798 KinEng   =     21515.1221 Temp     =       300.0199 
PotEng   =    -46979.1019 E_bond   =      2564.7442 E_angle  =     11039.6686 
E_dihed  =      5315.1376 E_impro  =       236.9931 E_vdwl   =     -1908.0950 
E_coul   =    210000.0238 E_long   =   -274227.5741 Press    =       -60.1192 
Volume   =    307647.7328 
---------------- Step     7150 ----- CPU =     34.6843 (sec) ----------------
TotEng   =    -25507.9868 KinEng   =     21525.8341 Temp     =       300.1692 
PotEng   =    -47033.8209 E_bond   =      2609.6877 E_angle  =     10963.4596 
E_dihed  =      5281.4300 E_impro  =       211.1389 E_vdwl   =     -1803.3300 
E_coul   =    209915.4939 E_long   =   -274211.7011 Press    =       194.2137 
Volume   =    307697.8935 
---------------- Step     7200 ----- CPU =     34.9237 (sec) ----------------
TotEng   =    -25515.9045 KinEng   =     21450.9020 Temp     =       299.1243 
PotEng   =    -46966.8065 E_bond   =      2531.1297 E_angle  =     11051.8919 
E_dihed  =      5334.9411 E_impro  =       216.3351 E_vdwl   =     -2046.9919 
E_coul   =    210160.0941 E_long   =   -274214.2066 Press    =        14.8612 
Volume   =    307888.5204 
---------------- Step     7250 ----- CPU =     35.1692 (sec) ----------------
TotEng   =    -25378.7884 KinEng   =     21442.6169 Temp     =       299.0088 
PotEng   =    -46821.4053 E_bond   =      2662.0596 E_angle  =     11059.6544 
E_dihed  =      5281.9491 E_impro  =       224.6821 E_vdwl   =     -1884.1116 
E_coul   =    210040.9103 E_long   =   -274206.5493 Press    =        13.9232 
Volume   =    308075.3931 
---------------- Step     7300 ----- CPU =     35.4106 (sec) ----------------
TotEng   =    -25161.4826 KinEng   =     21483.1660 Temp     =       299.5742 
PotEng   =    -46644.6486 E_bond   =      2634.4539 E_angle  =     11124.1884 
E_dihed  =      5320.2549 E_impro  =       240.6671 E_vdwl   =     -1915.0611 
E_coul   =    210168.8551 E_long   =   -274218.0070 Press    =       -42.2272 
Volume   =    308284.3999 
---------------- Step     7350 ----- CPU =     35.6520 (sec) ----------------
TotEng   =    -25048.1629 KinEng   =     21660.8962 Temp     =       302.0526 
PotEng   =    -46709.0591 E_bond   =      2642.1132 E_angle  =     11148.5815 
E_dihed  =      5254.4456 E_impro  =       227.5928 E_vdwl   =     -1836.6360 
E_coul   =    210065.2676 E_long   =   -274210.4237 Press    =      -123.5078 
Volume   =    308588.2545 
---------------- Step     7400 ----- CPU =     35.8933 (sec) ----------------
TotEng   =    -25148.7196 KinEng   =     21505.5036 Temp     =       299.8857 
PotEng   =    -46654.2232 E_bond   =      2545.0824 E_angle  =     11102.4297 
E_dihed  =      5362.1116 E_impro  =       233.2826 E_vdwl   =     -2128.9768 
E_coul   =    210444.4692 E_long   =   -274212.6219 Press    =      -294.8132 
Volume   =    308777.4506 
---------------- Step     7450 ----- CPU =     36.1410 (sec) ----------------
TotEng   =    -25250.9422 KinEng   =     21566.0093 Temp     =       300.7295 
PotEng   =    -46816.9515 E_bond   =      2585.6165 E_angle  =     11091.6351 
E_dihed  =      5264.5596 E_impro  =       236.9690 E_vdwl   =     -2036.6408 
E_coul   =    210247.3161 E_long   =   -274206.4070 Press    =      -147.7815 
Volume   =    308874.7828 
---------------- Step     7500 ----- CPU =     36.3846 (sec) ----------------
TotEng   =    -25341.4815 KinEng   =     21313.7713 Temp     =       297.2121 
PotEng   =    -46655.2528 E_bond   =      2695.5465 E_angle  =     11001.6137 
E_dihed  =      5287.0440 E_impro  =       218.1226 E_vdwl   =     -1992.7927 
E_coul   =    210341.1610 E_long   =   -274205.9479 Press    =       243.9749 
Volume   =    308773.0194 
---------------- Step     7550 ----- CPU =     36.6301 (sec) ----------------
TotEng   =    -25282.4611 KinEng   =     21532.9002 Temp     =       300.2678 
PotEng   =    -46815.3613 E_bond   =      2602.7869 E_angle  =     11059.6465 
E_dihed  =      5313.4720 E_impro  =       218.6847 E_vdwl   =     -2071.5443 
E_coul   =    210264.6016 E_long   =   -274203.0088 Press    =       -40.0750 
Volume   =    308656.7819 
---------------- Step     7600 ----- CPU =     36.8744 (sec) ----------------
TotEng   =    -25244.6831 KinEng   =     21708.0035 Temp     =       302.7095 
PotEng   =    -46952.6866 E_bond   =      2541.6183 E_angle  =     11159.9847 
E_dihed  =      5259.8522 E_impro  =       236.3002 E_vdwl   =     -1868.0158 
E_coul   =    209933.3279 E_long   =   -274215.7541 Press    =        92.7055 
Volume   =    308456.8504 
---------------- Step     7650 ----- CPU =     37.1161 (sec) ----------------
TotEng   =    -25304.5586 KinEng   =     21433.5171 Temp     =       298.8819 
PotEng   =    -46738.0757 E_bond   =      2541.6540 E_angle  =     11218.4929 
E_dihed  =      5245.0839 E_impro  =       221.3586 E_vdwl   =     -1712.9105 
E_coul   =    209963.2348 E_long   =   -274214.9894 Press    =       198.6866 
Volume   =    308367.3992 
---------------- Step     7700 ----- CPU =     37.3559 (sec) ----------------
TotEng   =    -25424.3367 KinEng   =     21611.2826 Temp     =       301.3608 
PotEng   =    -47035.6193 E_bond   =      2595.4974 E_angle  =     11024.2963 
E_dihed  =      5333.5878 E_impro  =       220.4559 E_vdwl   =     -1999.2839 
E_coul   =    210004.1097 E_long   =   -274214.2825 Press    =      -431.8183 
Volume   =    308468.5397 
---------------- Step     7750 ----- CPU =     37.6014 (sec) ----------------
TotEng   =    -25518.8093 KinEng   =     21486.9800 Temp     =       299.6274 
PotEng   =    -47005.7894 E_bond   =      2573.0154 E_angle  =     11053.6328 
E_dihed  =      5279.8722 E_impro  =       215.8834 E_vdwl   =     -1994.1789 
E_coul   =    210074.9189 E_long   =   -274208.9331 Press    =        -8.7222 
Volume   =    308454.3897 
---------------- Step     7800 ----- CPU =     37.8448 (sec) ----------------
TotEng   =    -25425.8454 KinEng   =     21356.8306 Temp     =       297.8125 
PotEng   =    -46782.6760 E_bond   =      2572.9627 E_angle  =     11160.5315 
E_dihed  =      5313.4698 E_impro  =       223.6167 E_vdwl   =     -1934.9556 
E_coul   =    210092.2014 E_long   =   -274210.5024 Press    =        82.7430 
Volume   =    308442.1329 
---------------- Step     7850 ----- CPU =     38.0850 (sec) ----------------
TotEng   =    -25120.1159 KinEng   =     21677.1678 Temp     =       302.2795 
PotEng   =    -46797.2836 E_bond   =      2569.3651 E_angle  =     11254.0880 
E_dihed  =      5246.8909 E_impro  =       247.4987 E_vdwl   =     -2051.8157 
E_coul   =    210151.1523 E_long   =   -274214.4629 Press    =       135.2170 
Volume   =    308360.2351 
---------------- Step     7900 ----- CPU =     38.3319 (sec) ----------------
TotEng   =    -24988.7584 KinEng   =     21505.6553 Temp     =       299.8878 
PotEng   =    -46494.4136 E_bond   =      2621.0283 E_angle  =     11324.0414 
E_dihed  =      5292.9255 E_impro  =       235.7204 E_vdwl   =     -1977.1586 
E_coul   =    210228.0012 E_long   =   -274218.9718 Press    =       118.8986 
Volume   =    308210.3724 
---------------- Step     7950 ----- CPU =     38.5718 (sec) ----------------
TotEng   =    -25171.7084 KinEng   =     21528.3995 Temp     =       300.2050 
PotEng   =    -46700.1079 E_bond   =      2667.0551 E_angle  =     11207.3472 
E_dihed  =      5340.4885 E_impro  =       233.5304 E_vdwl   =     -1876.9614 
E_coul   =    209948.5978 E_long   =   -274220.1656 Press    =       144.9984 
Volume   =    308082.5030 
---------------- Step     8000 ----- CPU =     38.8124 (sec) ----------------
TotEng   =    -25432.8167 KinEng   =     21535.8591 Temp     =       300.3090 
PotEng   =    -46968.6758 E_bond   =      2593.7769 E_angle  =     11072.6849 
E_dihed  =      5288.1205 E_impro  =       215.6897 E_vdwl   =     -2061.6488 
E_coul   =    210145.8828 E_long   =   -274223.1818 Press    =        51.2710 
Volume   =    308010.5911 
---------------- Step     8050 ----- CPU =     39.0562 (sec) ----------------
TotEng   =    -25612.6290 KinEng   =     21161.4860 Temp     =       295.0885 
PotEng   =    -46774.1150 E_bond   =      2648.9686 E_angle  =     11162.4615 
E_dihed  =      5320.4593 E_impro  =       217.2545 E_vdwl   =     -2112.0024 
E_coul   =    210206.4305 E_long   =   -274217.6870 Press    =      -393.7565 
Volume   =    307943.3302 
---------------- Step     8100 ----- CPU =     39.2967 (sec) ----------------
TotEng   =    -25482.8857 KinEng   =     21465.1868 Temp     =       299.3235 
PotEng   =    -46948.0726 E_bond   =      2636.1138 E_angle  =     11001.4620 
E_dihed  =      5294.5290 E_impro  =       229.2630 E_vdwl   =     -1845.3914 
E_coul   =    209951.6529 E_long   =   -274215.7019 Press    =        27.6229 
Volume   =    307839.2192 
---------------- Step     8150 ----- CPU =     39.5408 (sec) ----------------
TotEng   =    -25276.0049 KinEng   =     21617.9158 Temp     =       301.4533 
PotEng   =    -46893.9207 E_bond   =      2624.4201 E_angle  =     11123.0696 
E_dihed  =      5239.2472 E_impro  =       242.7040 E_vdwl   =     -2122.9796 
E_coul   =    210214.5994 E_long   =   -274214.9813 Press    =        18.9776 
Volume   =    307812.4611 
---------------- Step     8200 ----- CPU =     39.7813 (sec) ----------------
TotEng   =    -25233.7294 KinEng   =     21732.1239 Temp     =       303.0459 
PotEng   =    -46965.8532 E_bond   =      2575.8801 E_angle  =     11150.1704 
E_dihed  =      5335.0867 E_impro  =       237.6785 E_vdwl   =     -1903.0397 
E_coul   =    209835.0959 E_long   =   -274196.7252 Press    =        74.4874 
Volume   =    307749.3101 
---------------- Step     8250 ----- CPU =     40.0288 (sec) ----------------
TotEng   =    -25373.5145 KinEng   =     21532.3422 Temp     =       300.2600 
PotEng   =    -46905.8567 E_bond   =      2600.0040 E_angle  =     11174.2810 
E_dihed  =      5319.1484 E_impro  =       225.8290 E_vdwl   =     -2048.9386 
E_coul   =    210035.2343 E_long   =   -274211.4149 Press    =        92.0051 
Volume   =    307650.3401 
---------------- Step     8300 ----- CPU =     40.2707 (sec) ----------------
TotEng   =    -25550.0102 KinEng   =     21508.0739 Temp     =       299.9216 
PotEng   =    -47058.0841 E_bond   =      2491.2348 E_angle  =     11128.8851 
E_dihed  =      5304.7378 E_impro  =       227.4740 E_vdwl   =     -1873.2245 
E_coul   =    209888.0121 E_long   =   -274225.2034 Press    =       238.1725 
Volume   =    307430.3983 
---------------- Step     8350 ----- CPU =     40.5189 (sec) ----------------
TotEng   =    -25688.6264 KinEng   =     21535.2098 Temp     =       300.3000 
PotEng   =    -47223.8362 E_bond   =      2556.8240 E_angle  =     10946.6017 
E_dihed  =      5301.8485 E_impro  =       208.6797 E_vdwl   =     -1802.7756 
E_coul   =    209786.7616 E_long   =   -274221.7763 Press    =       194.5003 
Volume   =    307102.7538 
---------------- Step     8400 ----- CPU =     40.7623 (sec) ----------------
TotEng   =    -25654.0838 KinEng   =     21505.4417 Temp     =       299.8849 
PotEng   =    -47159.5254 E_bond   =      2531.2363 E_angle  =     11036.0784 
E_dihed  =      5331.0617 E_impro  =       233.8679 E_vdwl   =     -1895.8296 
E_coul   =    209810.2498 E_long   =   -274206.1898 Press    =       236.3068 
Volume   =    307061.0847 
---------------- Step     8450 ----- CPU =     41.0081 (sec) ----------------
TotEng   =    -25526.7264 KinEng   =     21470.2389 Temp     =       299.3940 
PotEng   =    -46996.9653 E_bond   =      2584.9190 E_angle  =     11065.2257 
E_dihed  =      5314.9927 E_impro  =       222.4677 E_vdwl   =     -1824.7658 
E_coul   =    209856.8848 E_long   =   -274216.6894 Press    =       214.5403 
Volume   =    307101.0249 
---------------- Step     8500 ----- CPU =     41.2489 (sec) ----------------
TotEng   =    -25398.0456 KinEng   =     21619.1950 Temp     =       301.4711 
PotEng   =    -47017.2406 E_bond   =      2532.4760 E_angle  =     11066.0725 
E_dihed  =      5343.8219 E_impro  =       215.1870 E_vdwl   =     -1845.0895 
E_coul   =    209882.3791 E_long   =   -274212.0875 Press    =       381.6432 
Volume   =    307269.4233 
---------------- Step     8550 ----- CPU =     41.4892 (sec) ----------------
TotEng   =    -25366.8709 KinEng   =     21518.1474 Temp     =       300.0620 
PotEng   =    -46885.0183 E_bond   =      2602.9855 E_angle  =     11220.1468 
E_dihed  =      5285.3010 E_impro  =       210.0633 E_vdwl   =     -1967.3356 
E_coul   =    209981.3279 E_long   =   -274217.5072 Press    =      -196.1286 
Volume   =    307610.8765 
---------------- Step     8600 ----- CPU =     41.7248 (sec) ----------------
TotEng   =    -25372.0708 KinEng   =     21572.7741 Temp     =       300.8238 
PotEng   =    -46944.8449 E_bond   =      2633.9866 E_angle  =     11095.2967 
E_dihed  =      5324.8777 E_impro  =       222.1630 E_vdwl   =     -2030.6853 
E_coul   =    210025.3371 E_long   =   -274215.8208 Press    =      -187.4683 
Volume   =    308015.4030 
---------------- Step     8650 ----- CPU =     41.9609 (sec) ----------------
TotEng   =    -25412.5565 KinEng   =     21397.1692 Temp     =       298.3750 
PotEng   =    -46809.7257 E_bond   =      2594.3331 E_angle  =     11147.4931 
E_dihed  =      5264.7224 E_impro  =       219.7625 E_vdwl   =     -1891.5729 
E_coul   =    210073.2750 E_long   =   -274217.7388 Press    =       -52.3701 
Volume   =    308323.5077 
---------------- Step     8700 ----- CPU =     42.1949 (sec) ----------------
TotEng   =    -25447.9766 KinEng   =     21518.7690 Temp     =       300.0707 
PotEng   =    -46966.7456 E_bond   =      2596.1440 E_angle  =     11167.1120 
E_dihed  =      5322.6938 E_impro  =       217.3542 E_vdwl   =     -2146.4129 
E_coul   =    210081.9113 E_long   =   -274205.5480 Press    =       109.2837 
Volume   =    308525.7880 
---------------- Step     8750 ----- CPU =     42.4338 (sec) ----------------
TotEng   =    -25379.8359 KinEng   =     21474.2459 Temp     =       299.4498 
PotEng   =    -46854.0817 E_bond   =      2573.0464 E_angle  =     11044.8780 
E_dihed  =      5342.3278 E_impro  =       221.7258 E_vdwl   =     -1907.4002 
E_coul   =    210084.9146 E_long   =   -274213.5742 Press    =       161.4892 
Volume   =    308574.7174 
---------------- Step     8800 ----- CPU =     42.6656 (sec) ----------------
TotEng   =    -25155.8660 KinEng   =     21669.4063 Temp     =       302.1713 
PotEng   =    -46825.2723 E_bond   =      2570.7813 E_angle  =     11140.2698 
E_dihed  =      5330.7205 E_impro  =       234.4915 E_vdwl   =     -1979.1533 
E_coul   =    210086.5881 E_long   =   -274208.9702 Press    =      -135.9139 
Volume   =    308460.0939 
---------------- Step     8850 ----- CPU =     42.8975 (sec) ----------------
TotEng   =    -25109.1576 KinEng   =     21700.7047 Temp     =       302.6077 
PotEng   =    -46809.8624 E_bond   =      2586.8236 E_angle  =     11099.8706 
E_dihed  =      5338.8152 E_impro  =       223.7785 E_vdwl   =     -1965.4717 
E_coul   =    210102.2153 E_long   =   -274195.8939 Press    =       427.1233 
Volume   =    308160.4946 
---------------- Step     8900 ----- CPU =     43.1329 (sec) ----------------
TotEng   =    -25323.6190 KinEng   =     21491.6990 Temp     =       299.6932 
PotEng   =    -46815.3180 E_bond   =      2605.2529 E_angle  =     11273.8842 
E_dihed  =      5274.0576 E_impro  =       228.2672 E_vdwl   =     -1918.7382 
E_coul   =    209945.2291 E_long   =   -274223.2708 Press    =        -7.3878 
Volume   =    307857.5641 
---------------- Step     8950 ----- CPU =     43.3671 (sec) ----------------
TotEng   =    -25610.1849 KinEng   =     21400.7224 Temp     =       298.4246 
PotEng   =    -47010.9073 E_bond   =      2577.8873 E_angle  =     11083.1961 
E_dihed  =      5268.1408 E_impro  =       232.7111 E_vdwl   =     -1868.3504 
E_coul   =    209900.8400 E_long   =   -274205.3321 Press    =       135.6163 
Volume   =    307764.6559 
---------------- Step     9000 ----- CPU =     43.6026 (sec) ----------------
TotEng   =    -25648.4845 KinEng   =     21404.4264 Temp     =       298.4762 
PotEng   =    -47052.9109 E_bond   =      2605.0690 E_angle  =     11026.2785 
E_dihed  =      5342.5024 E_impro  =       248.2259 E_vdwl   =     -2114.5760 
E_coul   =    210070.1630 E_long   =   -274230.5737 Press    =      -410.6229 
Volume   =    307757.6062 
---------------- Step     9050 ----- CPU =     43.8396 (sec) ----------------
TotEng   =    -25401.2306 KinEng   =     21658.0471 Temp     =       302.0129 
PotEng   =    -47059.2777 E_bond   =      2555.3123 E_angle  =     11119.2180 
E_dihed  =      5283.2490 E_impro  =       237.4145 E_vdwl   =     -1761.3256 
E_coul   =    209734.9197 E_long   =   -274228.0656 Press    =       -61.7088 
Volume   =    307651.9046 
---------------- Step     9100 ----- CPU =     44.0837 (sec) ----------------
TotEng   =    -25204.3174 KinEng   =     21628.9374 Temp     =       301.6070 
PotEng   =    -46833.2548 E_bond   =      2595.1420 E_angle  =     11053.7195 
E_dihed  =      5277.3172 E_impro  =       226.9046 E_vdwl   =     -1943.6713 
E_coul   =    210162.3510 E_long   =   -274205.0177 Press    =      -306.1254 
Volume   =    307648.9683 
---------------- Step     9150 ----- CPU =     44.3234 (sec) ----------------
TotEng   =    -25147.6031 KinEng   =     21450.6266 Temp     =       299.1205 
PotEng   =    -46598.2297 E_bond   =      2643.0572 E_angle  =     11168.3690 
E_dihed  =      5366.8134 E_impro  =       224.7876 E_vdwl   =     -2071.3800 
E_coul   =    210293.6648 E_long   =   -274223.5417 Press    =         1.4423 
Volume   =    307607.2311 
---------------- Step     9200 ----- CPU =     44.5660 (sec) ----------------
TotEng   =    -25177.2609 KinEng   =     21650.4199 Temp     =       301.9065 
PotEng   =    -46827.6808 E_bond   =      2610.0366 E_angle  =     11150.6656 
E_dihed  =      5292.1395 E_impro  =       244.3623 E_vdwl   =     -2155.6882 
E_coul   =    210261.4845 E_long   =   -274230.6811 Press    =      -127.8243 
Volume   =    307566.1206 
---------------- Step     9250 ----- CPU =     44.8091 (sec) ----------------
TotEng   =    -25315.1937 KinEng   =     21580.1264 Temp     =       300.9263 
PotEng   =    -46895.3202 E_bond   =      2637.6006 E_angle  =     11198.8926 
E_dihed  =      5274.4749 E_impro  =       234.0483 E_vdwl   =     -2114.8162 
E_coul   =    210088.2505 E_long   =   -274213.7709 Press    =        -6.6261 
Volume   =    307477.4387 
---------------- Step     9300 ----- CPU =     45.0531 (sec) ----------------
TotEng   =    -25544.8228 KinEng   =     21469.4333 Temp     =       299.3827 
PotEng   =    -47014.2561 E_bond   =      2603.2019 E_angle  =     11072.1402 
E_dihed  =      5317.5276 E_impro  =       227.2090 E_vdwl   =     -1905.1156 
E_coul   =    209899.5869 E_long   =   -274228.8062 Press    =       372.2976 
Volume   =    307398.6411 
---------------- Step     9350 ----- CPU =     45.2974 (sec) ----------------
TotEng   =    -25691.1761 KinEng   =     21388.6044 Temp     =       298.2556 
PotEng   =    -47079.7806 E_bond   =      2611.4476 E_angle  =     11026.4129 
E_dihed  =      5286.3724 E_impro  =       230.1109 E_vdwl   =     -2001.7143 
E_coul   =    209979.3564 E_long   =   -274211.7665 Press    =      -114.7188 
Volume   =    307460.2449 
---------------- Step     9400 ----- CPU =     45.5416 (sec) ----------------
TotEng   =    -25642.5910 KinEng   =     21536.9791 Temp     =       300.3246 
PotEng   =    -47179.5701 E_bond   =      2573.9337 E_angle  =     11008.7299 
E_dihed  =      5255.7440 E_impro  =       227.7745 E_vdwl   =     -1966.7623 
E_coul   =    209941.8060 E_long   =   -274220.7959 Press    =       161.1332 
Volume   =    307555.4263 
---------------- Step     9450 ----- CPU =     45.7852 (sec) ----------------
TotEng   =    -25472.1000 KinEng   =     21441.8751 Temp     =       298.9985 
PotEng   =    -46913.9751 E_bond   =      2617.0823 E_angle  =     11185.1989 
E_dihed  =      5325.4021 E_impro  =       228.7812 E_vdwl   =     -1915.2305 
E_coul   =    209848.4555 E_long   =   -274203.6646 Press    =      -436.2024 
Volume   =    307715.5088 
---------------- Step     9500 ----- CPU =     46.0344 (sec) ----------------
TotEng   =    -25324.7638 KinEng   =     21551.6268 Temp     =       300.5289 
PotEng   =    -46876.3906 E_bond   =      2588.2736 E_angle  =     11058.3541 
E_dihed  =      5334.4187 E_impro  =       219.0684 E_vdwl   =     -1786.0346 
E_coul   =    209928.1516 E_long   =   -274218.6224 Press    =       207.0659 
Volume   =    307823.0916 
---------------- Step     9550 ----- CPU =     46.2773 (sec) ----------------
TotEng   =    -25329.0126 KinEng   =     21639.2953 Temp     =       301.7514 
PotEng   =    -46968.3079 E_bond   =      2610.5718 E_angle  =     10987.3875 
E_dihed  =      5323.6760 E_impro  =       232.9684 E_vdwl   =     -1959.3354 
E_coul   =    210062.6993 E_long   =   -274226.2755 Press    =      -157.1101 
Volume   =    308076.2125 
---------------- Step     9600 ----- CPU =     46.5229 (sec) ----------------
TotEng   =    -25331.7511 KinEng   =     21518.2001 Temp     =       300.0628 
PotEng   =    -46849.9512 E_bond   =      2631.9642 E_angle  =     10981.2112 
E_dihed  =      5306.3329 E_impro  =       229.0173 E_vdwl   =     -1961.0244 
E_coul   =    210193.3335 E_long   =   -274230.7859 Press    =        54.6122 
Volume   =    308135.0313 
---------------- Step     9650 ----- CPU =     46.7650 (sec) ----------------
TotEng   =    -25318.3042 KinEng   =     21584.4554 Temp     =       300.9867 
PotEng   =    -46902.7596 E_bond   =      2636.6197 E_angle  =     11097.5935 
E_dihed  =      5303.5445 E_impro  =       258.0572 E_vdwl   =     -2039.1426 
E_coul   =    210066.7144 E_long   =   -274226.1463 Press    =      -397.3056 
Volume   =    308030.5397 
---------------- Step     9700 ----- CPU =     47.0111 (sec) ----------------
TotEng   =    -25359.7366 KinEng   =     21480.9723 Temp     =       299.5436 
PotEng   =    -46840.7089 E_bond   =      2606.6881 E_angle  =     11106.6193 
E_dihed  =      5253.3764 E_impro  =       224.5287 E_vdwl   =     -1862.2776 
E_coul   =    210048.9492 E_long   =   -274218.5929 Press    =        82.2056 
Volume   =    307779.8085 
---------------- Step     9750 ----- CPU =     47.2524 (sec) ----------------
TotEng   =    -25412.3281 KinEng   =     21509.3622 Temp     =       299.9395 
PotEng   =    -46921.6904 E_bond   =      2528.0776 E_angle  =     11140.4254 
E_dihed  =      5251.8074 E_impro  =       227.2218 E_vdwl   =     -1924.8512 
E_coul   =    210059.9502 E_long   =   -274204.3215 Press    =       259.2770 
Volume   =    307491.4293 
---------------- Step     9800 ----- CPU =     47.4997 (sec) ----------------
TotEng   =    -25439.9460 KinEng   =     21451.7108 Temp     =       299.1356 
PotEng   =    -46891.6568 E_bond   =      2629.2499 E_angle  =     11156.1640 
E_dihed  =      5243.9026 E_impro  =       219.0712 E_vdwl   =     -1713.0391 
E_coul   =    209793.7026 E_long   =   -274220.7081 Press    =       153.7263 
Volume   =    307386.9912 
---------------- Step     9850 ----- CPU =     47.7377 (sec) ----------------
TotEng   =    -25481.7910 KinEng   =     21376.9935 Temp     =       298.0937 
PotEng   =    -46858.7845 E_bond   =      2589.7060 E_angle  =     11095.8316 
E_dihed  =      5286.5955 E_impro  =       230.8892 E_vdwl   =     -1783.2423 
E_coul   =    209941.7987 E_long   =   -274220.3632 Press    =       500.3934 
Volume   =    307433.1202 
---------------- Step     9900 ----- CPU =     47.9726 (sec) ----------------
TotEng   =    -25425.7396 KinEng   =     21448.2235 Temp     =       299.0870 
PotEng   =    -46873.9631 E_bond   =      2559.1811 E_angle  =     11200.4990 
E_dihed  =      5233.2127 E_impro  =       231.8678 E_vdwl   =     -2083.4563 
E_coul   =    210205.0257 E_long   =   -274220.2931 Press    =       195.8768 
Volume   =    307635.9161 
---------------- Step     9950 ----- CPU =     48.2032 (sec) ----------------
TotEng   =    -25264.2304 KinEng   =     21729.6217 Temp     =       303.0110 
PotEng   =    -46993.8521 E_bond   =      2592.1341 E_angle  =     11109.5117 
E_dihed  =      5276.5623 E_impro  =       219.1770 E_vdwl   =     -2173.5624 
E_coul   =    210200.9555 E_long   =   -274218.6303 Press    =        -2.1923 
Volume   =    307720.5412 
---------------- Step    10000 ----- CPU =     48.4375 (sec) ----------------
TotEng   =    -25097.7439 KinEng   =     21479.8768 Temp     =       299.5284 
PotEng   =    -46577.6208 E_bond   =      2632.0133 E_angle  =     11186.7044 
E_dihed  =      5360.2471 E_impro  =       258.7312 E_vdwl   =     -2013.6198 
E_coul   =    210229.4314 E_long   =   -274231.1285 Press    =        63.1073 
Volume   =    307653.5610 
Loop time of 48.4375 on 16 procs for 10000 steps with 32000 atoms

Performance: 35.675 ns/day, 0.673 hours/ns, 206.452 timesteps/s
98.7% CPU use with 16 MPI tasks x 1 OpenMP threads

MPI task timing breakdown:
Section |  min time  |  avg time  |  max time  |%varavg| %total
---------------------------------------------------------------
Pair    | 26.902     | 27.753     | 28.617     |   9.4 | 57.30
Bond    | 1.4689     | 1.6922     | 1.9422     |   9.6 |  3.49
Kspace  | 8.0165     | 8.9084     | 9.776      |  16.8 | 18.39
Neigh   | 3.5466     | 3.5491     | 3.5537     |   0.1 |  7.33
Comm    | 2.2091     | 2.2542     | 2.4502     |   4.8 |  4.65
Output  | 0.0079367  | 0.0082037  | 0.011498   |   0.9 |  0.02
Modify  | 3.5159     | 4.018      | 4.1015     |   8.7 |  8.30
Other   |            | 0.2546     |            |       |  0.53

Nlocal:           2000 ave        2025 max        1953 min
Histogram: 1 1 1 0 1 2 1 4 2 3
Nghost:        11879.2 ave       11951 max       11809 min
Histogram: 1 2 1 2 3 2 1 0 2 2
Neighs:         752948 ave      768890 max      716245 min
Histogram: 1 0 1 1 0 2 2 0 3 6

Total # of neighbors = 12047176
Ave neighs/atom = 376.47425
Ave special neighs/atom = 7.431875
Neighbor list builds = 1075
Dangerous builds = 0
Total wall time: 0:00:48
Intel(R) VTune(TM) Profiler 2022.2.0 collection completed successfully. Use the "aps --report /home/ubuntu/lammps/bench/aps_result_20220703" command to generate textual and HTML reports for the profiling session.
