LAMMPS (7 Jan 2022)
  using 1 OpenMP thread(s) per MPI task
Reading data file ...
  orthogonal box = (-27.5 -38.5 -36.3646) to (27.5 38.5 36.3615)
  4 by 4 by 4 MPI processor grid
  reading atoms ...
  32000 atoms
  reading velocities ...
  32000 velocities
  scanning bonds ...
  4 = max bonds/atom
  scanning angles ...
  8 = max angles/atom
  scanning dihedrals ...
  18 = max dihedrals/atom
  scanning impropers ...
  2 = max impropers/atom
  reading bonds ...
  27723 bonds
  reading angles ...
  40467 angles
  reading dihedrals ...
  56829 dihedrals
  reading impropers ...
  1034 impropers
Finding 1-2 1-3 1-4 neighbors ...
  special bond factors lj:    0        0        0       
  special bond factors coul:  0        0        0       
     4 = max # of 1-2 neighbors
    12 = max # of 1-3 neighbors
    24 = max # of 1-4 neighbors
    26 = max # of special neighbors
  special bonds CPU = 0.017 seconds
  read_data CPU = 0.222 seconds
Replicating atoms ...
  orthogonal box = (-27.5 -38.5 -36.3646) to (137.5 192.5 181.8137)
  4 by 4 by 4 MPI processor grid
  864000 atoms
  748521 bonds
  1092609 angles
  1534383 dihedrals
  27918 impropers
Finding 1-2 1-3 1-4 neighbors ...
  special bond factors lj:    0        0        0       
  special bond factors coul:  0        0        0       
     4 = max # of 1-2 neighbors
    12 = max # of 1-3 neighbors
    24 = max # of 1-4 neighbors
    26 = max # of special neighbors
  special bonds CPU = 0.031 seconds
  replicate CPU = 0.064 seconds
Finding SHAKE clusters ...
   43659 = # of size 2 clusters
   98091 = # of size 3 clusters
   20169 = # of size 4 clusters
  114291 = # of frozen angles
  find clusters CPU = 0.010 seconds
PPPM initialization ...
  using 12-bit tables for long-range coulomb (../kspace.cpp:340)
  G vector (1/distance) = 0.32786357
  grid = 144 180 180
  stencil order = 7
  estimated absolute RMS force accuracy = 0.00036845542
  estimated relative force accuracy = 1.1095925e-06
  using single precision MKL FFT
  3d grid and FFT values/proc = 131220 77760
----------------------------------------------------------
Using INTEL Package without Coprocessor.
Compiler: Intel Classic C++ 20.21.5 / Intel(R) C++ g++ 9.3 mode
SIMD compiler directives: Enabled
Precision: mixed
----------------------------------------------------------
  generated 2278 of 2278 mixed pair_coeff terms from arithmetic mixing rule
Neighbor list info ...
  update every 1 steps, delay 5 steps, check yes
  max neighbors/atom: 2000, page size: 100000
  master list distance cutoff = 12
  ghost atom cutoff = 12
  binsize = 6, bins = 28 39 37
  1 neighbor lists, perpetual/occasional/extra = 1 0 0
  (1) pair lj/charmm/coul/long/intel, perpetual
      attributes: half, newton on, intel
      pair build: half/bin/newton/intel
      stencil: half/bin/3d
      bin: intel
Setting up Verlet run ...
  Unit style    : real
  Current step  : 0
  Time step     : 2
Per MPI rank memory allocation (min/avg/max) = 177.9 | 180.1 | 181.5 Mbytes
---------------- Step        0 ----- CPU =      0.0000 (sec) ----------------
TotEng   =   -684697.6038 KinEng   =    579010.4447 Temp     =       299.0277 
PotEng   =  -1263708.0485 E_bond   =     68525.6859 E_angle  =    294877.1223 
E_dihed  =    140718.2350 E_impro  =      5764.8965 E_vdwl   =    -62312.3838 
E_coul   =   7893502.4206 E_long   =  -9604784.0249 Press    =      -152.9376 
Volume   =   8315865.9045 
---------------- Step       50 ----- CPU =      2.8888 (sec) ----------------
TotEng   =   -683988.4469 KinEng   =    580535.3328 Temp     =       299.8152 
PotEng   =  -1264523.7797 E_bond   =     66734.7265 E_angle  =    292593.3579 
E_dihed  =    141466.0124 E_impro  =      6132.9033 E_vdwl   =    -53797.6331 
E_coul   =   7887554.4343 E_long   =  -9605207.5811 Press    =       234.8021 
Volume   =   8316840.1309 
---------------- Step      100 ----- CPU =      5.6031 (sec) ----------------
TotEng   =   -682768.8026 KinEng   =    582976.5757 Temp     =       301.0760 
PotEng   =  -1265745.3783 E_bond   =     69332.5281 E_angle  =    291105.8088 
E_dihed  =    140361.4766 E_impro  =      5853.1849 E_vdwl   =    -51308.1969 
E_coul   =   7883951.2218 E_long   =  -9605041.4015 Press    =        12.2872 
Volume   =   8319578.3348 
Loop time of 5.60314 on 64 procs for 100 steps with 864000 atoms

Performance: 3.084 ns/day, 7.782 hours/ns, 17.847 timesteps/s
97.2% CPU use with 64 MPI tasks x 1 OpenMP threads

MPI task timing breakdown:
Section |  min time  |  avg time  |  max time  |%varavg| %total
---------------------------------------------------------------
Pair    | 2.0692     | 2.1581     | 2.3167     |   4.4 | 38.52
Bond    | 0.10059    | 0.1332     | 0.16508    |   6.6 |  2.38
Kspace  | 1.488      | 1.6354     | 1.722      |   5.1 | 29.19
Neigh   | 0.30111    | 0.30253    | 0.30411    |   0.1 |  5.40
Comm    | 0.23412    | 0.27993    | 0.37511    |   7.5 |  5.00
Output  | 0.00013964 | 0.00014281 | 0.00024231 |   0.0 |  0.00
Modify  | 0.78888    | 1.0077     | 1.1063     |   9.1 | 17.99
Other   |            | 0.08601    |            |       |  1.54

Nlocal:          13500 ave       13666 max       13286 min
Histogram: 2 1 6 9 8 6 11 11 5 5
Nghost:        29964.2 ave       30262 max       29676 min
Histogram: 3 3 8 8 12 12 7 5 2 4
Neighs:    5.07436e+06 ave 5.19991e+06 max 4.96445e+06 min
Histogram: 2 4 11 10 11 9 8 2 3 4

Total # of neighbors = 3.247589e+08
Ave neighs/atom = 375.87836
Ave special neighs/atom = 7.431875
Neighbor list builds = 11
Dangerous builds = 0
Total wall time: 0:00:06
Intel(R) VTune(TM) Profiler 2022.2.0 collection completed successfully. Use the "aps --report /home/ubuntu/lammps/bench/aps_result_20220530" command to generate textual and HTML reports for the profiling session.
