LAMMPS (7 Jan 2022)
  using 1 OpenMP thread(s) per MPI task
New timer settings: style=full  mode=nosync  timeout=off
Reading data file ...
  orthogonal box = (-27.5 -38.5 -36.3646) to (27.5 38.5 36.3615)
  2 by 4 by 2 MPI processor grid
  reading atoms ...
  32000 atoms
  reading velocities ...
  32000 velocities
  scanning bonds ...
  4 = max bonds/atom
  scanning angles ...
  8 = max angles/atom
  scanning dihedrals ...
  18 = max dihedrals/atom
  scanning impropers ...
  2 = max impropers/atom
  reading bonds ...
  27723 bonds
  reading angles ...
  40467 angles
  reading dihedrals ...
  56829 dihedrals
  reading impropers ...
  1034 impropers
Finding 1-2 1-3 1-4 neighbors ...
  special bond factors lj:    0        0        0       
  special bond factors coul:  0        0        0       
     4 = max # of 1-2 neighbors
    12 = max # of 1-3 neighbors
    24 = max # of 1-4 neighbors
    26 = max # of special neighbors
  special bonds CPU = 0.003 seconds
  read_data CPU = 0.177 seconds
Replicating atoms ...
  orthogonal box = (-27.5 -38.5 -36.3646) to (137.5 192.5 181.8137)
  2 by 4 by 2 MPI processor grid
  864000 atoms
  748521 bonds
  1092609 angles
  1534383 dihedrals
  27918 impropers
Finding 1-2 1-3 1-4 neighbors ...
  special bond factors lj:    0        0        0       
  special bond factors coul:  0        0        0       
     4 = max # of 1-2 neighbors
    12 = max # of 1-3 neighbors
    24 = max # of 1-4 neighbors
    26 = max # of special neighbors
  special bonds CPU = 0.042 seconds
  replicate CPU = 0.085 seconds
Finding SHAKE clusters ...
   43659 = # of size 2 clusters
   98091 = # of size 3 clusters
   20169 = # of size 4 clusters
  114291 = # of frozen angles
  find clusters CPU = 0.018 seconds
PPPM initialization ...
  using 12-bit tables for long-range coulomb (../kspace.cpp:340)
  G vector (1/distance) = 0.25235202
  grid = 72 90 90
  stencil order = 7
  estimated absolute RMS force accuracy = 0.029803316
  estimated relative force accuracy = 8.9751802e-05
  using single precision MKL FFT
  3d grid and FFT values/proc = 67080 38880
----------------------------------------------------------
Using INTEL Package without Coprocessor.
Compiler: Intel Classic C++ 20.21.5 / Intel(R) C++ g++ 9.3 mode
SIMD compiler directives: Enabled
Precision: mixed
----------------------------------------------------------
  generated 2278 of 2278 mixed pair_coeff terms from arithmetic mixing rule
Neighbor list info ...
  update every 1 steps, delay 5 steps, check yes
  max neighbors/atom: 2000, page size: 100000
  master list distance cutoff = 12
  ghost atom cutoff = 12
  binsize = 6, bins = 28 39 37
  1 neighbor lists, perpetual/occasional/extra = 1 0 0
  (1) pair lj/charmm/coul/long/intel, perpetual
      attributes: half, newton on, intel
      pair build: half/bin/newton/intel
      stencil: half/bin/3d
      bin: intel
Setting up Verlet run ...
  Unit style    : real
  Current step  : 0
  Time step     : 2
Per MPI rank memory allocation (min/avg/max) = 611.1 | 613.8 | 616.4 Mbytes
---------------- Step        0 ----- CPU =      0.0000 (sec) ----------------
TotEng   =   -684670.9760 KinEng   =    579010.4447 Temp     =       299.0277 
PotEng   =  -1263681.4207 E_bond   =     68525.6859 E_angle  =    294877.1223 
E_dihed  =    140718.2350 E_impro  =      5764.8965 E_vdwl   =    -62312.3838 
E_coul   =   5692538.4978 E_long   =  -7403793.4743 Press    =      -148.6879 
Volume   =   8315865.9045 
---------------- Step       50 ----- CPU =      5.8680 (sec) ----------------
TotEng   =   -683945.5679 KinEng   =    580526.0859 Temp     =       299.8105 
PotEng   =  -1264471.6538 E_bond   =     66737.4156 E_angle  =    292591.4536 
E_dihed  =    141470.6187 E_impro  =      6132.4335 E_vdwl   =    -53811.1987 
E_coul   =   5686392.7814 E_long   =  -7403985.1580 Press    =       238.9259 
Volume   =   8316862.5498 
---------------- Step      100 ----- CPU =     11.8326 (sec) ----------------
TotEng   =   -682827.8985 KinEng   =    582915.2738 Temp     =       301.0443 
PotEng   =  -1265743.1723 E_bond   =     69335.3028 E_angle  =    291121.4917 
E_dihed  =    140366.2218 E_impro  =      5852.7245 E_vdwl   =    -51271.2324 
E_coul   =   5682697.0824 E_long   =  -7403844.7630 Press    =        14.5716 
Volume   =   8319656.0545 
Loop time of 11.8326 on 16 procs for 100 steps with 864000 atoms

Performance: 1.460 ns/day, 16.434 hours/ns, 8.451 timesteps/s
99.3% CPU use with 16 MPI tasks x 1 OpenMP threads

MPI task timing breakdown:
Section |  min time  |  avg time  |  max time  |%varavg|  %CPU | %total
-----------------------------------------------------------------------
Pair    | 7.3543     | 7.4768     | 7.6055     |   2.4 | 100.0 | 63.19
Bond    | 0.43455    | 0.44773    | 0.47021    |   1.6 |  99.9 |  3.78
Kspace  | 1.1475     | 1.2765     | 1.3988     |   6.0 |  96.2 | 10.79
Neigh   | 0.91892    | 0.92061    | 0.92262    |   0.1 | 100.0 |  7.78
Comm    | 0.4908     | 0.50171    | 0.51986    |   1.4 |  96.5 |  4.24
Output  | 0.00024913 | 0.00025603 | 0.00028431 |   0.0 | 100.0 |  0.00
Modify  | 1.112      | 1.1466     | 1.168      |   2.1 |  99.3 |  9.69
Other   |            | 0.06233    |            |       |       |  0.53

Nlocal:          54000 ave       54284 max       53648 min
Histogram: 1 1 0 2 4 2 2 0 1 3
Nghost:        65881.2 ave       66337 max       65444 min
Histogram: 1 2 1 2 3 1 2 2 1 1
Neighs:    2.02974e+07 ave 2.05084e+07 max 2.00558e+07 min
Histogram: 2 0 1 1 3 3 1 3 0 2

Total # of neighbors = 3.2475854e+08
Ave neighs/atom = 375.87794
Ave special neighs/atom = 7.431875
Neighbor list builds = 11
Dangerous builds = 0
Total wall time: 0:00:12
Intel(R) VTune(TM) Profiler 2022.2.0 collection completed successfully. Use the "aps --report /home/ubuntu/lammps/bench/aps_result_20220421" command to generate textual and HTML reports for the profiling session.
