LAMMPS (7 Jan 2022)
  using 1 OpenMP thread(s) per MPI task
Reading data file ...
  orthogonal box = (-27.5 -38.5 -36.3646) to (27.5 38.5 36.3615)
  1 by 1 by 1 MPI processor grid
  reading atoms ...
  32000 atoms
  reading velocities ...
  32000 velocities
  scanning bonds ...
  4 = max bonds/atom
  scanning angles ...
  8 = max angles/atom
  scanning dihedrals ...
  18 = max dihedrals/atom
  scanning impropers ...
  2 = max impropers/atom
  reading bonds ...
  27723 bonds
  reading angles ...
  40467 angles
  reading dihedrals ...
  56829 dihedrals
  reading impropers ...
  1034 impropers
Finding 1-2 1-3 1-4 neighbors ...
  special bond factors lj:    0        0        0       
  special bond factors coul:  0        0        0       
     4 = max # of 1-2 neighbors
    12 = max # of 1-3 neighbors
    24 = max # of 1-4 neighbors
    26 = max # of special neighbors
  special bonds CPU = 0.015 seconds
  read_data CPU = 0.249 seconds
Finding SHAKE clusters ...
    1617 = # of size 2 clusters
    3633 = # of size 3 clusters
     747 = # of size 4 clusters
    4233 = # of frozen angles
  find clusters CPU = 0.007 seconds
Ewald initialization ...
  using 12-bit tables for long-range coulomb (../kspace.cpp:340)
  G vector (1/distance) = 0.24317651
  estimated absolute RMS force accuracy = 0.038892646
  estimated relative force accuracy = 0.00011712405
  KSpace vectors: actual max1d max3d = 5154 15 14895
                  kxmax kymax kzmax  = 11 15 14
----------------------------------------------------------
Using INTEL Package without Coprocessor.
Compiler: Intel Classic C++ 20.21.5 / Intel(R) C++ g++ 9.3 mode
SIMD compiler directives: Enabled
Precision: mixed
----------------------------------------------------------
  generated 2278 of 2278 mixed pair_coeff terms from arithmetic mixing rule
Neighbor list info ...
  update every 1 steps, delay 5 steps, check yes
  max neighbors/atom: 2000, page size: 100000
  master list distance cutoff = 12
  ghost atom cutoff = 12
  binsize = 6, bins = 10 13 13
  1 neighbor lists, perpetual/occasional/extra = 1 0 0
  (1) pair lj/charmm/coul/long/intel, perpetual
      attributes: half, newton on, intel
      pair build: half/bin/newton/intel
      stencil: half/bin/3d
      bin: intel
Setting up Verlet run ...
  Unit style    : real
  Current step  : 0
  Time step     : 2
Per MPI rank memory allocation (min/avg/max) = 482.3 | 482.3 | 482.3 Mbytes
---------------- Step        0 ----- CPU =      0.0000 (sec) ----------------
TotEng   =    -25359.1382 KinEng   =     21444.8313 Temp     =       299.0397 
PotEng   =    -46803.9695 E_bond   =      2537.9949 E_angle  =     10921.3721 
E_dihed  =      5211.7865 E_impro  =       213.5135 E_vdwl   =     -2307.8639 
E_coul   =    200896.8670 E_long   =   -264277.6397 Press    =      -144.5718 
Volume   =    307995.0335 
---------------- Step       50 ----- CPU =     37.1188 (sec) ----------------
TotEng   =    -25332.7167 KinEng   =     21500.7576 Temp     =       299.8195 
PotEng   =    -46833.4744 E_bond   =      2471.7813 E_angle  =     10836.5278 
E_dihed  =      5239.7066 E_impro  =       227.1119 E_vdwl   =     -1993.4945 
E_coul   =    200668.6056 E_long   =   -264283.7131 Press    =       241.5801 
Volume   =    308033.0098 
---------------- Step      100 ----- CPU =     74.1700 (sec) ----------------
TotEng   =    -25294.9813 KinEng   =     21590.4449 Temp     =       301.0702 
PotEng   =    -46885.4262 E_bond   =      2568.1740 E_angle  =     10781.9168 
E_dihed  =      5198.5979 E_impro  =       216.7349 E_vdwl   =     -1899.5734 
E_coul   =    200527.5643 E_long   =   -264278.8406 Press    =        12.5055 
Volume   =    308139.1422 
---------------- Step      150 ----- CPU =    111.1793 (sec) ----------------
TotEng   =    -25263.9301 KinEng   =     21517.8380 Temp     =       300.0577 
PotEng   =    -46781.7681 E_bond   =      2556.1357 E_angle  =     10853.3024 
E_dihed  =      5264.7763 E_impro  =       203.1800 E_vdwl   =     -2074.0581 
E_coul   =    200687.9834 E_long   =   -264273.0878 Press    =       245.5185 
Volume   =    308525.4232 
---------------- Step      200 ----- CPU =    148.3273 (sec) ----------------
TotEng   =    -25091.6349 KinEng   =     21523.1244 Temp     =       300.1314 
PotEng   =    -46614.7593 E_bond   =      2488.5591 E_angle  =     11071.1577 
E_dihed  =      5222.0481 E_impro  =       232.9446 E_vdwl   =     -2119.2741 
E_coul   =    200768.8968 E_long   =   -264279.0916 Press    =        83.3511 
Volume   =    309006.7380 
---------------- Step      250 ----- CPU =    185.4650 (sec) ----------------
TotEng   =    -24955.9946 KinEng   =     21606.4156 Temp     =       301.2929 
PotEng   =    -46562.4102 E_bond   =      2541.2480 E_angle  =     11112.6454 
E_dihed  =      5239.4463 E_impro  =       212.7495 E_vdwl   =     -2208.9944 
E_coul   =    200833.9608 E_long   =   -264293.4658 Press    =      -205.9660 
Volume   =    309413.6254 
---------------- Step      300 ----- CPU =    222.6066 (sec) ----------------
TotEng   =    -24997.6975 KinEng   =     21610.3986 Temp     =       301.3484 
PotEng   =    -46608.0961 E_bond   =      2569.0737 E_angle  =     10940.3201 
E_dihed  =      5222.7210 E_impro  =       220.6935 E_vdwl   =     -2258.8965 
E_coul   =    200960.3662 E_long   =   -264262.3741 Press    =      -446.2859 
Volume   =    309705.9593 
---------------- Step      350 ----- CPU =    259.7997 (sec) ----------------
TotEng   =    -25203.4537 KinEng   =     21456.3490 Temp     =       299.2003 
PotEng   =    -46659.8027 E_bond   =      2584.4519 E_angle  =     10956.8938 
E_dihed  =      5257.9260 E_impro  =       212.8948 E_vdwl   =     -2154.5562 
E_coul   =    200750.9422 E_long   =   -264268.3551 Press    =      -437.4175 
Volume   =    309852.1986 
---------------- Step      400 ----- CPU =    296.9382 (sec) ----------------
TotEng   =    -25342.1187 KinEng   =     21364.1307 Temp     =       297.9143 
PotEng   =    -46706.2494 E_bond   =      2540.7851 E_angle  =     10943.0240 
E_dihed  =      5212.8341 E_impro  =       216.0214 E_vdwl   =     -2216.8216 
E_coul   =    200879.8891 E_long   =   -264281.9815 Press    =        69.3100 
Volume   =    309859.8084 
---------------- Step      450 ----- CPU =    334.1316 (sec) ----------------
TotEng   =    -25282.1311 KinEng   =     21411.9091 Temp     =       298.5806 
PotEng   =    -46694.0402 E_bond   =      2516.8265 E_angle  =     10868.0988 
E_dihed  =      5256.6041 E_impro  =       221.6232 E_vdwl   =     -2111.2244 
E_coul   =    200829.3318 E_long   =   -264275.3003 Press    =       260.7921 
Volume   =    309856.6998 
---------------- Step      500 ----- CPU =    371.2694 (sec) ----------------
TotEng   =    -25010.0609 KinEng   =     21493.5827 Temp     =       299.7195 
PotEng   =    -46503.6435 E_bond   =      2596.3263 E_angle  =     10976.1321 
E_dihed  =      5254.4411 E_impro  =       212.1465 E_vdwl   =     -2056.2069 
E_coul   =    200791.3894 E_long   =   -264277.8721 Press    =      -214.1935 
Volume   =    309879.3023 
---------------- Step      550 ----- CPU =    408.4529 (sec) ----------------
TotEng   =    -24790.7210 KinEng   =     21694.3679 Temp     =       302.5194 
PotEng   =    -46485.0889 E_bond   =      2564.2601 E_angle  =     10941.4547 
E_dihed  =      5220.5050 E_impro  =       226.0258 E_vdwl   =     -1963.7686 
E_coul   =    200794.0057 E_long   =   -264267.5717 Press    =       441.3093 
Volume   =    310009.4657 
---------------- Step      600 ----- CPU =    445.6552 (sec) ----------------
TotEng   =    -24851.3290 KinEng   =     21633.0017 Temp     =       301.6636 
PotEng   =    -46484.3307 E_bond   =      2571.6213 E_angle  =     11022.6330 
E_dihed  =      5246.0279 E_impro  =       220.8888 E_vdwl   =     -2212.5838 
E_coul   =    200940.4823 E_long   =   -264273.4002 Press    =      -142.7392 
Volume   =    310356.3507 
Loop time of 445.655 on 1 procs for 600 steps with 32000 atoms

Performance: 0.233 ns/day, 103.161 hours/ns, 1.346 timesteps/s
100.0% CPU use with 1 MPI tasks x 1 OpenMP threads

MPI task timing breakdown:
Section |  min time  |  avg time  |  max time  |%varavg| %total
---------------------------------------------------------------
Pair    | 26.083     | 26.083     | 26.083     |   0.0 |  5.85
Bond    | 1.574      | 1.574      | 1.574      |   0.0 |  0.35
Kspace  | 412.57     | 412.57     | 412.57     |   0.0 | 92.58
Neigh   | 3.0698     | 3.0698     | 3.0698     |   0.0 |  0.69
Comm    | 0.72818    | 0.72818    | 0.72818    |   0.0 |  0.16
Output  | 0.001144   | 0.001144   | 0.001144   |   0.0 |  0.00
Modify  | 1.53       | 1.53       | 1.53       |   0.0 |  0.34
Other   |            | 0.1028     |            |       |  0.02

Nlocal:          32000 ave       32000 max       32000 min
Histogram: 1 0 0 0 0 0 0 0 0 0
Nghost:          47664 ave       47664 max       47664 min
Histogram: 1 0 0 0 0 0 0 0 0 0
Neighs:    1.19428e+07 ave 1.19428e+07 max 1.19428e+07 min
Histogram: 1 0 0 0 0 0 0 0 0 0

Total # of neighbors = 11942831
Ave neighs/atom = 373.21347
Ave special neighs/atom = 7.431875
Neighbor list builds = 64
Dangerous builds = 0
Total wall time: 0:07:27
Intel(R) VTune(TM) Profiler 2022.2.0 collection completed successfully. Use the "aps --report /home/ubuntu/lammps/bench/aps_result_20220530" command to generate textual and HTML reports for the profiling session.
