LAMMPS (7 Jan 2022)
  using 1 OpenMP thread(s) per MPI task
Reading data file ...
  orthogonal box = (-27.5 -38.5 -36.3646) to (27.5 38.5 36.3615)
  2 by 4 by 4 MPI processor grid
  reading atoms ...
  32000 atoms
  reading velocities ...
  32000 velocities
  scanning bonds ...
  4 = max bonds/atom
  scanning angles ...
  8 = max angles/atom
  scanning dihedrals ...
  18 = max dihedrals/atom
  scanning impropers ...
  2 = max impropers/atom
  reading bonds ...
  27723 bonds
  reading angles ...
  40467 angles
  reading dihedrals ...
  56829 dihedrals
  reading impropers ...
  1034 impropers
Finding 1-2 1-3 1-4 neighbors ...
  special bond factors lj:    0        0        0       
  special bond factors coul:  0        0        0       
     4 = max # of 1-2 neighbors
    12 = max # of 1-3 neighbors
    24 = max # of 1-4 neighbors
    26 = max # of special neighbors
  special bonds CPU = 0.003 seconds
  read_data CPU = 0.251 seconds
Finding SHAKE clusters ...
    1617 = # of size 2 clusters
    3633 = # of size 3 clusters
     747 = # of size 4 clusters
    4233 = # of frozen angles
  find clusters CPU = 0.002 seconds
PPPM initialization ...
  using 12-bit tables for long-range coulomb (../kspace.cpp:340)
  G vector (1/distance) = 0.25235202
  grid = 24 30 30
  stencil order = 7
  estimated absolute RMS force accuracy = 0.029803316
  estimated relative force accuracy = 8.9751802e-05
  using single precision MKL FFT
  3d grid and FFT values/proc = 4275 768
----------------------------------------------------------
Using INTEL Package without Coprocessor.
Compiler: Intel Classic C++ 20.21.5 / Intel(R) C++ g++ 9.3 mode
SIMD compiler directives: Enabled
Precision: double
----------------------------------------------------------
  generated 2278 of 2278 mixed pair_coeff terms from arithmetic mixing rule
Neighbor list info ...
  update every 1 steps, delay 5 steps, check yes
  max neighbors/atom: 2000, page size: 100000
  master list distance cutoff = 12
  ghost atom cutoff = 12
  binsize = 6, bins = 10 13 13
  1 neighbor lists, perpetual/occasional/extra = 1 0 0
  (1) pair lj/charmm/coul/long/intel, perpetual
      attributes: half, newton on, intel
      pair build: half/bin/newton/intel
      stencil: half/bin/3d
      bin: intel
Setting up Verlet run ...
  Unit style    : real
  Current step  : 0
  Time step     : 2
Per MPI rank memory allocation (min/avg/max) = 27.53 | 28.11 | 28.72 Mbytes
---------------- Step        0 ----- CPU =      0.0000 (sec) ----------------
TotEng   =    -25358.1836 KinEng   =     21444.8313 Temp     =       299.0397 
PotEng   =    -46803.0149 E_bond   =      2537.9940 E_angle  =     10921.3742 
E_dihed  =      5211.7865 E_impro  =       213.5116 E_vdwl   =     -2307.8634 
E_coul   =    210834.7465 E_long   =   -274214.5643 Press    =      -148.6832 
Volume   =    307995.0335 
---------------- Step       50 ----- CPU =      0.2242 (sec) ----------------
TotEng   =    -25332.1034 KinEng   =     21500.5277 Temp     =       299.8163 
PotEng   =    -46832.6311 E_bond   =      2471.7255 E_angle  =     10836.5738 
E_dihed  =      5239.6303 E_impro  =       227.1249 E_vdwl   =     -1993.0708 
E_coul   =    210607.0519 E_long   =   -274221.6668 Press    =       238.8035 
Volume   =    308031.9413 
---------------- Step      100 ----- CPU =      0.4442 (sec) ----------------
TotEng   =    -25292.3525 KinEng   =     21588.2577 Temp     =       301.0397 
PotEng   =    -46880.6102 E_bond   =      2567.8627 E_angle  =     10781.8375 
E_dihed  =      5198.6642 E_impro  =       216.7593 E_vdwl   =     -1899.0517 
E_coul   =    210469.8101 E_long   =   -274216.4923 Press    =        14.2756 
Volume   =    308135.3267 
---------------- Step      150 ----- CPU =      0.6621 (sec) ----------------
TotEng   =    -25260.1680 KinEng   =     21534.2733 Temp     =       300.2869 
PotEng   =    -46794.4413 E_bond   =      2556.6692 E_angle  =     10854.0712 
E_dihed  =      5264.4353 E_impro  =       203.0078 E_vdwl   =     -2074.2442 
E_coul   =    210607.9741 E_long   =   -274206.3547 Press    =       244.0740 
Volume   =    308518.6124 
---------------- Step      200 ----- CPU =      0.8757 (sec) ----------------
TotEng   =    -25078.7371 KinEng   =     21540.6873 Temp     =       300.3763 
PotEng   =    -46619.4244 E_bond   =      2489.3940 E_angle  =     11075.6781 
E_dihed  =      5221.5707 E_impro  =       232.4445 E_vdwl   =     -2148.5561 
E_coul   =    210715.4302 E_long   =   -274205.3859 Press    =        40.7264 
Volume   =    308999.3989 
---------------- Step      250 ----- CPU =      1.0931 (sec) ----------------
TotEng   =    -24960.9055 KinEng   =     21533.3102 Temp     =       300.2735 
PotEng   =    -46494.2157 E_bond   =      2541.4862 E_angle  =     11095.3201 
E_dihed  =      5245.3227 E_impro  =       213.3536 E_vdwl   =     -2166.1481 
E_coul   =    210799.4431 E_long   =   -274222.9933 Press    =      -156.8734 
Volume   =    309392.3641 
---------------- Step      300 ----- CPU =      1.3071 (sec) ----------------
TotEng   =    -25028.1477 KinEng   =     21519.1053 Temp     =       300.0754 
PotEng   =    -46547.2530 E_bond   =      2560.5679 E_angle  =     10926.8438 
E_dihed  =      5223.1532 E_impro  =       224.5428 E_vdwl   =     -2171.4534 
E_coul   =    210896.7221 E_long   =   -274207.6294 Press    =      -385.5521 
Volume   =    309703.9118 
---------------- Step      350 ----- CPU =      1.5244 (sec) ----------------
TotEng   =    -25143.7403 KinEng   =     21603.1952 Temp     =       301.2480 
PotEng   =    -46746.9356 E_bond   =      2580.8976 E_angle  =     10957.3565 
E_dihed  =      5253.0578 E_impro  =       209.1736 E_vdwl   =     -2049.9261 
E_coul   =    210525.6811 E_long   =   -274223.1760 Press    =      -331.6009 
Volume   =    309848.3763 
---------------- Step      400 ----- CPU =      1.7411 (sec) ----------------
TotEng   =    -25306.2251 KinEng   =     21400.6609 Temp     =       298.4237 
PotEng   =    -46706.8860 E_bond   =      2542.0270 E_angle  =     10922.5869 
E_dihed  =      5215.0892 E_impro  =       213.7855 E_vdwl   =     -1954.6601 
E_coul   =    210566.4235 E_long   =   -274212.1379 Press    =       296.3217 
Volume   =    309891.9870 
---------------- Step      450 ----- CPU =      1.9549 (sec) ----------------
TotEng   =    -25385.6584 KinEng   =     21454.1888 Temp     =       299.1702 
PotEng   =    -46839.8472 E_bond   =      2489.7828 E_angle  =     10900.9316 
E_dihed  =      5268.2444 E_impro  =       225.4270 E_vdwl   =     -2106.3659 
E_coul   =    210586.9601 E_long   =   -274204.8272 Press    =       253.5648 
Volume   =    309980.6876 
---------------- Step      500 ----- CPU =      2.1698 (sec) ----------------
TotEng   =    -25193.3157 KinEng   =     21462.5276 Temp     =       299.2864 
PotEng   =    -46655.8432 E_bond   =      2579.3974 E_angle  =     10905.7745 
E_dihed  =      5248.6097 E_impro  =       223.7975 E_vdwl   =     -2257.5905 
E_coul   =    210831.0419 E_long   =   -274186.8737 Press    =      -337.2371 
Volume   =    310049.2945 
---------------- Step      550 ----- CPU =      2.3894 (sec) ----------------
TotEng   =    -24903.1081 KinEng   =     21610.9700 Temp     =       301.3564 
PotEng   =    -46514.0780 E_bond   =      2541.3346 E_angle  =     10980.8589 
E_dihed  =      5202.7767 E_impro  =       246.9013 E_vdwl   =     -2065.4034 
E_coul   =    210790.7611 E_long   =   -274211.3072 Press    =       448.2459 
Volume   =    310025.2127 
---------------- Step      600 ----- CPU =      2.6039 (sec) ----------------
TotEng   =    -24761.9959 KinEng   =     21659.9191 Temp     =       302.0390 
PotEng   =    -46421.9150 E_bond   =      2555.6527 E_angle  =     11083.9950 
E_dihed  =      5289.2126 E_impro  =       233.4038 E_vdwl   =     -2091.6630 
E_coul   =    210725.4094 E_long   =   -274217.9254 Press    =       153.0923 
Volume   =    310040.4024 
Loop time of 2.60395 on 32 procs for 600 steps with 32000 atoms

Performance: 39.816 ns/day, 0.603 hours/ns, 230.419 timesteps/s
97.4% CPU use with 32 MPI tasks x 1 OpenMP threads

MPI task timing breakdown:
Section |  min time  |  avg time  |  max time  |%varavg| %total
---------------------------------------------------------------
Pair    | 1.0304     | 1.3287     | 1.4821     |   9.9 | 51.03
Bond    | 0.017831   | 0.072974   | 0.11967    |  13.7 |  2.80
Kspace  | 0.55818    | 0.70452    | 0.9815     |  13.2 | 27.06
Neigh   | 0.17424    | 0.17513    | 0.17673    |   0.2 |  6.73
Comm    | 0.12491    | 0.12864    | 0.13312    |   0.6 |  4.94
Output  | 0.00061556 | 0.00063078 | 0.00085566 |   0.0 |  0.02
Modify  | 0.17079    | 0.17892    | 0.18842    |   1.1 |  6.87
Other   |            | 0.0144     |            |       |  0.55

Nlocal:           1000 ave        1040 max         963 min
Histogram: 4 4 0 1 5 8 2 4 1 3
Nghost:        8721.81 ave        8847 max        8614 min
Histogram: 1 4 4 3 4 8 5 2 0 1
Neighs:         373554 ave      404746 max      346974 min
Histogram: 2 3 5 4 1 9 4 2 1 1

Total # of neighbors = 11953722
Ave neighs/atom = 373.55381
Ave special neighs/atom = 7.431875
Neighbor list builds = 65
Dangerous builds = 0
Total wall time: 0:00:02
Intel(R) VTune(TM) Profiler 2022.2.0 collection completed successfully. Use the "aps --report /home/ubuntu/lammps/bench/aps_result_20220601" command to generate textual and HTML reports for the profiling session.
