LAMMPS (7 Jan 2022)
  using 1 OpenMP thread(s) per MPI task
Reading data file ...
  orthogonal box = (-27.5 -38.5 -36.3646) to (27.5 38.5 36.3615)
  1 by 2 by 1 MPI processor grid
  reading atoms ...
  32000 atoms
  reading velocities ...
  32000 velocities
  scanning bonds ...
  4 = max bonds/atom
  scanning angles ...
  8 = max angles/atom
  scanning dihedrals ...
  18 = max dihedrals/atom
  scanning impropers ...
  2 = max impropers/atom
  reading bonds ...
  27723 bonds
  reading angles ...
  40467 angles
  reading dihedrals ...
  56829 dihedrals
  reading impropers ...
  1034 impropers
Finding 1-2 1-3 1-4 neighbors ...
  special bond factors lj:    0        0        0       
  special bond factors coul:  0        0        0       
     4 = max # of 1-2 neighbors
    12 = max # of 1-3 neighbors
    24 = max # of 1-4 neighbors
    26 = max # of special neighbors
  special bonds CPU = 0.007 seconds
  read_data CPU = 0.243 seconds
Finding SHAKE clusters ...
    1617 = # of size 2 clusters
    3633 = # of size 3 clusters
     747 = # of size 4 clusters
    4233 = # of frozen angles
  find clusters CPU = 0.004 seconds
PPPM initialization ...
  using 12-bit tables for long-range coulomb (../kspace.cpp:340)
  G vector (1/distance) = 0.25235202
  grid = 24 30 30
  stencil order = 7
  estimated absolute RMS force accuracy = 0.029803316
  estimated relative force accuracy = 8.9751802e-05
  using single precision MKL FFT
  3d grid and FFT values/proc = 25234 10800
----------------------------------------------------------
Using INTEL Package without Coprocessor.
Compiler: Intel Classic C++ 20.21.5 / Intel(R) C++ g++ 9.3 mode
SIMD compiler directives: Enabled
Precision: mixed
----------------------------------------------------------
  generated 2278 of 2278 mixed pair_coeff terms from arithmetic mixing rule
Neighbor list info ...
  update every 1 steps, delay 5 steps, check yes
  max neighbors/atom: 2000, page size: 100000
  master list distance cutoff = 12
  ghost atom cutoff = 12
  binsize = 6, bins = 10 13 13
  1 neighbor lists, perpetual/occasional/extra = 1 0 0
  (1) pair lj/charmm/coul/long/intel, perpetual
      attributes: half, newton on, intel
      pair build: half/bin/newton/intel
      stencil: half/bin/3d
      bin: intel
Setting up Verlet run ...
  Unit style    : real
  Current step  : 0
  Time step     : 2
Per MPI rank memory allocation (min/avg/max) = 210.3 | 211.1 | 211.9 Mbytes
---------------- Step        0 ----- CPU =      0.0000 (sec) ----------------
TotEng   =    -25358.1687 KinEng   =     21444.8313 Temp     =       299.0397 
PotEng   =    -46803.0000 E_bond   =      2537.9949 E_angle  =     10921.3721 
E_dihed  =      5211.7865 E_impro  =       213.5135 E_vdwl   =     -2307.8639 
E_coul   =    210834.7641 E_long   =   -274214.5673 Press    =      -148.6999 
Volume   =    307995.0335 
---------------- Step       50 ----- CPU =      2.0049 (sec) ----------------
TotEng   =    -25332.1215 KinEng   =     21500.5429 Temp     =       299.8166 
PotEng   =    -46832.6644 E_bond   =      2471.7216 E_angle  =     10836.5637 
E_dihed  =      5239.6281 E_impro  =       227.1121 E_vdwl   =     -1993.0544 
E_coul   =    210607.0454 E_long   =   -274221.6809 Press    =       238.8140 
Volume   =    308031.9403 
---------------- Step      100 ----- CPU =      3.6143 (sec) ----------------
TotEng   =    -25292.3427 KinEng   =     21588.2815 Temp     =       301.0400 
PotEng   =    -46880.6242 E_bond   =      2567.8450 E_angle  =     10781.8455 
E_dihed  =      5198.6683 E_impro  =       216.7632 E_vdwl   =     -1899.0496 
E_coul   =    210469.7801 E_long   =   -274216.4768 Press    =        14.3358 
Volume   =    308135.3232 
---------------- Step      150 ----- CPU =      5.2184 (sec) ----------------
TotEng   =    -25260.1489 KinEng   =     21534.2787 Temp     =       300.2870 
PotEng   =    -46794.4276 E_bond   =      2556.6796 E_angle  =     10854.0638 
E_dihed  =      5264.4395 E_impro  =       203.0093 E_vdwl   =     -2074.2811 
E_coul   =    210608.0704 E_long   =   -274206.4090 Press    =       243.9523 
Volume   =    308518.6136 
---------------- Step      200 ----- CPU =      6.7884 (sec) ----------------
TotEng   =    -25078.7483 KinEng   =     21540.8529 Temp     =       300.3787 
PotEng   =    -46619.6012 E_bond   =      2489.3759 E_angle  =     11075.6370 
E_dihed  =      5221.5829 E_impro  =       232.4444 E_vdwl   =     -2148.4962 
E_coul   =    210715.3042 E_long   =   -274205.4494 Press    =        40.7924 
Volume   =    308999.4332 
---------------- Step      250 ----- CPU =      8.3875 (sec) ----------------
TotEng   =    -24960.5132 KinEng   =     21534.1246 Temp     =       300.2848 
PotEng   =    -46494.6378 E_bond   =      2541.5985 E_angle  =     11095.1773 
E_dihed  =      5245.5234 E_impro  =       213.4714 E_vdwl   =     -2164.1616 
E_coul   =    210796.7765 E_long   =   -274223.0233 Press    =      -155.1960 
Volume   =    309392.6562 
---------------- Step      300 ----- CPU =      9.9536 (sec) ----------------
TotEng   =    -25028.3504 KinEng   =     21525.7341 Temp     =       300.1678 
PotEng   =    -46554.0844 E_bond   =      2560.3401 E_angle  =     10926.6372 
E_dihed  =      5221.2372 E_impro  =       224.3627 E_vdwl   =     -2165.8187 
E_coul   =    210887.4091 E_long   =   -274208.2521 Press    =      -380.1244 
Volume   =    309705.3333 
---------------- Step      350 ----- CPU =     11.5499 (sec) ----------------
TotEng   =    -25147.7074 KinEng   =     21597.2242 Temp     =       301.1647 
PotEng   =    -46744.9316 E_bond   =      2580.0020 E_angle  =     10956.2040 
E_dihed  =      5251.0008 E_impro  =       209.7096 E_vdwl   =     -2020.1209 
E_coul   =    210503.1699 E_long   =   -274224.8970 Press    =      -315.2560 
Volume   =    309850.7926 
---------------- Step      400 ----- CPU =     13.1138 (sec) ----------------
TotEng   =    -25304.5256 KinEng   =     21420.3277 Temp     =       298.6980 
PotEng   =    -46724.8533 E_bond   =      2538.5113 E_angle  =     10923.4641 
E_dihed  =      5218.3122 E_impro  =       216.1703 E_vdwl   =     -2028.6112 
E_coul   =    210621.5362 E_long   =   -274214.2362 Press    =       222.0439 
Volume   =    309905.2635 
---------------- Step      450 ----- CPU =     14.7059 (sec) ----------------
TotEng   =    -25350.0494 KinEng   =     21465.7630 Temp     =       299.3316 
PotEng   =    -46815.8124 E_bond   =      2496.1862 E_angle  =     10909.8974 
E_dihed  =      5267.5399 E_impro  =       223.1772 E_vdwl   =     -2179.4976 
E_coul   =    210675.9375 E_long   =   -274209.0530 Press    =       144.4534 
Volume   =    310014.7124 
---------------- Step      500 ----- CPU =     16.2689 (sec) ----------------
TotEng   =    -25123.6628 KinEng   =     21500.5275 Temp     =       299.8163 
PotEng   =    -46624.1903 E_bond   =      2590.8291 E_angle  =     10901.2090 
E_dihed  =      5235.1399 E_impro  =       218.5622 E_vdwl   =     -2201.1214 
E_coul   =    210843.4606 E_long   =   -274212.2698 Press    =      -249.9092 
Volume   =    310102.1476 
---------------- Step      550 ----- CPU =     17.8318 (sec) ----------------
TotEng   =    -24901.8331 KinEng   =     21527.0792 Temp     =       300.1866 
PotEng   =    -46428.9123 E_bond   =      2558.3608 E_angle  =     10978.5529 
E_dihed  =      5205.9853 E_impro  =       238.4292 E_vdwl   =     -2055.6794 
E_coul   =    210847.6639 E_long   =   -274202.2248 Press    =       444.2593 
Volume   =    310115.8325 
---------------- Step      600 ----- CPU =     19.4233 (sec) ----------------
TotEng   =    -24807.6031 KinEng   =     21707.8519 Temp     =       302.7074 
PotEng   =    -46515.4550 E_bond   =      2514.0954 E_angle  =     11018.2799 
E_dihed  =      5265.8980 E_impro  =       227.1203 E_vdwl   =     -2089.0013 
E_coul   =    210755.4282 E_long   =   -274207.2755 Press    =       316.3024 
Volume   =    310227.7447 
---------------- Step      650 ----- CPU =     21.0128 (sec) ----------------
TotEng   =    -24867.0444 KinEng   =     21612.4473 Temp     =       301.3770 
PotEng   =    -46479.4916 E_bond   =      2529.7339 E_angle  =     10947.3259 
E_dihed  =      5269.5351 E_impro  =       215.0117 E_vdwl   =     -2318.8940 
E_coul   =    211065.4637 E_long   =   -274187.6679 Press    =      -352.8310 
Volume   =    310419.3272 
---------------- Step      700 ----- CPU =     22.5732 (sec) ----------------
TotEng   =    -24909.6101 KinEng   =     21577.2986 Temp     =       300.8869 
PotEng   =    -46486.9087 E_bond   =      2491.4030 E_angle  =     11103.7341 
E_dihed  =      5241.0967 E_impro  =       206.2438 E_vdwl   =     -2280.6666 
E_coul   =    210953.0467 E_long   =   -274201.7664 Press    =        93.7640 
Volume   =    310456.9162 
---------------- Step      750 ----- CPU =     24.1342 (sec) ----------------
TotEng   =    -24914.1060 KinEng   =     21507.4296 Temp     =       299.9126 
PotEng   =    -46421.5356 E_bond   =      2552.3752 E_angle  =     11079.3053 
E_dihed  =      5280.2425 E_impro  =       217.9922 E_vdwl   =     -2093.2020 
E_coul   =    210756.2045 E_long   =   -274214.4533 Press    =       -62.9455 
Volume   =    310413.8659 
---------------- Step      800 ----- CPU =     25.6963 (sec) ----------------
TotEng   =    -24979.6162 KinEng   =     21403.1010 Temp     =       298.4578 
PotEng   =    -46382.7172 E_bond   =      2532.3046 E_angle  =     11055.5975 
E_dihed  =      5282.3933 E_impro  =       221.0940 E_vdwl   =     -2105.0033 
E_coul   =    210846.9200 E_long   =   -274216.0233 Press    =      -131.4174 
Volume   =    310555.8034 
---------------- Step      850 ----- CPU =     27.2872 (sec) ----------------
TotEng   =    -24898.7875 KinEng   =     21479.3533 Temp     =       299.5211 
PotEng   =    -46378.1408 E_bond   =      2529.0514 E_angle  =     10983.1055 
E_dihed  =      5275.9653 E_impro  =       234.4500 E_vdwl   =     -2349.8177 
E_coul   =    211152.9860 E_long   =   -274203.8813 Press    =       357.9178 
Volume   =    310466.1015 
---------------- Step      900 ----- CPU =     28.8481 (sec) ----------------
TotEng   =    -24807.0264 KinEng   =     21667.2094 Temp     =       302.1406 
PotEng   =    -46474.2358 E_bond   =      2585.3950 E_angle  =     10975.7248 
E_dihed  =      5303.3535 E_impro  =       220.3744 E_vdwl   =     -1962.9051 
E_coul   =    210615.1009 E_long   =   -274211.2792 Press    =       261.7051 
Volume   =    310207.9945 
---------------- Step      950 ----- CPU =     30.4393 (sec) ----------------
TotEng   =    -24960.0907 KinEng   =     21619.4872 Temp     =       301.4752 
PotEng   =    -46579.5780 E_bond   =      2559.5755 E_angle  =     10995.3218 
E_dihed  =      5324.9201 E_impro  =       231.0804 E_vdwl   =     -2166.8255 
E_coul   =    210689.6392 E_long   =   -274213.2894 Press    =       -94.3174 
Volume   =    310044.5832 
---------------- Step     1000 ----- CPU =     32.0017 (sec) ----------------
TotEng   =    -25177.0243 KinEng   =     21445.1511 Temp     =       299.0441 
PotEng   =    -46622.1754 E_bond   =      2521.6814 E_angle  =     11050.5260 
E_dihed  =      5270.7788 E_impro  =       219.1234 E_vdwl   =     -2301.6226 
E_coul   =    210828.5107 E_long   =   -274211.1730 Press    =      -191.4511 
Volume   =    309980.5727 
---------------- Step     1050 ----- CPU =     33.5636 (sec) ----------------
TotEng   =    -25275.6030 KinEng   =     21437.1927 Temp     =       298.9332 
PotEng   =    -46712.7957 E_bond   =      2542.0757 E_angle  =     10971.2419 
E_dihed  =      5280.8805 E_impro  =       222.1416 E_vdwl   =     -2232.4556 
E_coul   =    210706.0013 E_long   =   -274202.6811 Press    =      -265.0123 
Volume   =    309942.3241 
---------------- Step     1100 ----- CPU =     35.1563 (sec) ----------------
TotEng   =    -25159.5800 KinEng   =     21458.4751 Temp     =       299.2299 
PotEng   =    -46618.0551 E_bond   =      2601.0934 E_angle  =     10953.2515 
E_dihed  =      5279.9673 E_impro  =       235.0958 E_vdwl   =     -2068.3550 
E_coul   =    210596.1267 E_long   =   -274215.2348 Press    =      -202.3526 
Volume   =    309813.8182 
---------------- Step     1150 ----- CPU =     36.7205 (sec) ----------------
TotEng   =    -25008.1256 KinEng   =     21436.2039 Temp     =       298.9194 
PotEng   =    -46444.3295 E_bond   =      2534.1502 E_angle  =     11087.1701 
E_dihed  =      5269.7312 E_impro  =       212.0293 E_vdwl   =     -2194.4689 
E_coul   =    210839.7399 E_long   =   -274192.6813 Press    =        -9.9061 
Volume   =    309677.0566 
---------------- Step     1200 ----- CPU =     38.2848 (sec) ----------------
TotEng   =    -24918.4431 KinEng   =     21491.0611 Temp     =       299.6843 
PotEng   =    -46409.5042 E_bond   =      2649.3432 E_angle  =     10929.5397 
E_dihed  =      5268.9042 E_impro  =       230.8986 E_vdwl   =     -2278.2914 
E_coul   =    210999.2469 E_long   =   -274209.1455 Press    =       -59.3039 
Volume   =    309623.9942 
---------------- Step     1250 ----- CPU =     39.8779 (sec) ----------------
TotEng   =    -24849.7964 KinEng   =     21632.9029 Temp     =       301.6623 
PotEng   =    -46482.6993 E_bond   =      2564.5178 E_angle  =     10977.1412 
E_dihed  =      5298.3098 E_impro  =       210.1270 E_vdwl   =     -2091.5183 
E_coul   =    210763.6287 E_long   =   -274204.9054 Press    =        13.1886 
Volume   =    309503.0371 
---------------- Step     1300 ----- CPU =     41.4444 (sec) ----------------
TotEng   =    -24879.2863 KinEng   =     21681.9536 Temp     =       302.3463 
PotEng   =    -46561.2399 E_bond   =      2611.0664 E_angle  =     11009.7298 
E_dihed  =      5251.0108 E_impro  =       230.1886 E_vdwl   =     -2101.3934 
E_coul   =    210637.2933 E_long   =   -274199.1354 Press    =      -192.9414 
Volume   =    309496.1379 
---------------- Step     1350 ----- CPU =     43.0400 (sec) ----------------
TotEng   =    -25093.2107 KinEng   =     21550.6115 Temp     =       300.5147 
PotEng   =    -46643.8223 E_bond   =      2598.8434 E_angle  =     10991.6223 
E_dihed  =      5255.7060 E_impro  =       206.2271 E_vdwl   =     -2025.5493 
E_coul   =    210520.4138 E_long   =   -274191.0856 Press    =      -160.7307 
Volume   =    309633.2304 
---------------- Step     1400 ----- CPU =     44.6070 (sec) ----------------
TotEng   =    -25352.2185 KinEng   =     21324.1034 Temp     =       297.3562 
PotEng   =    -46676.3219 E_bond   =      2654.6214 E_angle  =     10876.6699 
E_dihed  =      5240.5632 E_impro  =       221.4940 E_vdwl   =     -2110.3922 
E_coul   =    210651.0569 E_long   =   -274210.3350 Press    =      -335.8975 
Volume   =    309567.0778 
---------------- Step     1450 ----- CPU =     46.1749 (sec) ----------------
TotEng   =    -25432.3871 KinEng   =     21230.3839 Temp     =       296.0493 
PotEng   =    -46662.7710 E_bond   =      2499.2732 E_angle  =     10921.4882 
E_dihed  =      5279.6765 E_impro  =       230.6092 E_vdwl   =     -1954.1754 
E_coul   =    210562.6230 E_long   =   -274202.2658 Press    =       375.5290 
Volume   =    309420.2349 
---------------- Step     1500 ----- CPU =     47.7692 (sec) ----------------
TotEng   =    -25227.9601 KinEng   =     21606.5830 Temp     =       301.2952 
PotEng   =    -46834.5431 E_bond   =      2575.8637 E_angle  =     10911.9203 
E_dihed  =      5183.1216 E_impro  =       237.3538 E_vdwl   =     -2028.3837 
E_coul   =    210511.1386 E_long   =   -274225.5575 Press    =       204.9590 
Volume   =    309343.0998 
---------------- Step     1550 ----- CPU =     49.3337 (sec) ----------------
TotEng   =    -24952.3487 KinEng   =     21524.2724 Temp     =       300.1474 
PotEng   =    -46476.6211 E_bond   =      2560.1303 E_angle  =     10956.3772 
E_dihed  =      5290.8794 E_impro  =       224.8979 E_vdwl   =     -2185.0265 
E_coul   =    210894.1586 E_long   =   -274218.0381 Press    =        64.0244 
Volume   =    309389.2539 
---------------- Step     1600 ----- CPU =     50.8996 (sec) ----------------
TotEng   =    -24766.1102 KinEng   =     21582.7794 Temp     =       300.9633 
PotEng   =    -46348.8897 E_bond   =      2581.5919 E_angle  =     10967.5439 
E_dihed  =      5296.6389 E_impro  =       223.6025 E_vdwl   =     -2074.9184 
E_coul   =    210871.9863 E_long   =   -274215.3348 Press    =        -6.9769 
Volume   =    309353.6867 
---------------- Step     1650 ----- CPU =     52.4958 (sec) ----------------
TotEng   =    -24805.1301 KinEng   =     21763.6471 Temp     =       303.4854 
PotEng   =    -46568.7772 E_bond   =      2578.7066 E_angle  =     10921.7423 
E_dihed  =      5266.2553 E_impro  =       213.5401 E_vdwl   =     -2167.4154 
E_coul   =    210832.5626 E_long   =   -274214.1688 Press    =       123.5910 
Volume   =    309335.1019 
---------------- Step     1700 ----- CPU =     54.0618 (sec) ----------------
TotEng   =    -25042.7665 KinEng   =     21497.1800 Temp     =       299.7697 
PotEng   =    -46539.9465 E_bond   =      2570.9702 E_angle  =     10946.0781 
E_dihed  =      5286.5776 E_impro  =       219.8125 E_vdwl   =     -2150.8278 
E_coul   =    210807.5218 E_long   =   -274220.0789 Press    =       135.5727 
Volume   =    309241.8430 
---------------- Step     1750 ----- CPU =     55.6289 (sec) ----------------
TotEng   =    -25325.0311 KinEng   =     21476.7260 Temp     =       299.4844 
PotEng   =    -46801.7571 E_bond   =      2500.3338 E_angle  =     10891.4444 
E_dihed  =      5295.9053 E_impro  =       219.1797 E_vdwl   =     -2048.7848 
E_coul   =    210554.3688 E_long   =   -274214.2043 Press    =         1.3458 
Volume   =    309099.9285 
---------------- Step     1800 ----- CPU =     57.2233 (sec) ----------------
TotEng   =    -25420.8029 KinEng   =     21432.2917 Temp     =       298.8648 
PotEng   =    -46853.0946 E_bond   =      2564.3962 E_angle  =     10867.9227 
E_dihed  =      5285.6811 E_impro  =       221.6414 E_vdwl   =     -2136.2510 
E_coul   =    210553.6948 E_long   =   -274210.1799 Press    =      -506.8516 
Volume   =    309055.2662 
---------------- Step     1850 ----- CPU =     58.7921 (sec) ----------------
TotEng   =    -25378.0446 KinEng   =     21333.3387 Temp     =       297.4850 
PotEng   =    -46711.3833 E_bond   =      2563.7149 E_angle  =     10892.3697 
E_dihed  =      5262.1558 E_impro  =       233.4985 E_vdwl   =     -2037.8732 
E_coul   =    210591.4567 E_long   =   -274216.7058 Press    =       -48.7771 
Volume   =    308999.1555 
---------------- Step     1900 ----- CPU =     60.3589 (sec) ----------------
TotEng   =    -25149.1861 KinEng   =     21400.0858 Temp     =       298.4157 
PotEng   =    -46549.2719 E_bond   =      2552.1467 E_angle  =     10993.8385 
E_dihed  =      5269.2785 E_impro  =       222.8100 E_vdwl   =     -2249.9899 
E_coul   =    210880.6175 E_long   =   -274217.9731 Press    =       135.3040 
Volume   =    309001.9395 
---------------- Step     1950 ----- CPU =     61.9555 (sec) ----------------
TotEng   =    -24774.6324 KinEng   =     21735.6718 Temp     =       303.0953 
PotEng   =    -46510.3042 E_bond   =      2565.0506 E_angle  =     11018.7824 
E_dihed  =      5338.4435 E_impro  =       219.2134 E_vdwl   =     -2172.2977 
E_coul   =    210743.4329 E_long   =   -274222.9293 Press    =      -350.6223 
Volume   =    308979.1634 
---------------- Step     2000 ----- CPU =     63.5241 (sec) ----------------
TotEng   =    -24640.3086 KinEng   =     21645.4805 Temp     =       301.8376 
PotEng   =    -46285.7891 E_bond   =      2546.6012 E_angle  =     11178.9291 
E_dihed  =      5338.7834 E_impro  =       223.3677 E_vdwl   =     -2142.2163 
E_coul   =    210789.0191 E_long   =   -274220.2733 Press    =       270.0801 
Volume   =    308939.8718 
---------------- Step     2050 ----- CPU =     65.1199 (sec) ----------------
TotEng   =    -24791.2227 KinEng   =     21668.3195 Temp     =       302.1561 
PotEng   =    -46459.5422 E_bond   =      2577.0272 E_angle  =     10988.4691 
E_dihed  =      5338.0844 E_impro  =       225.5662 E_vdwl   =     -2311.6568 
E_coul   =    210935.3762 E_long   =   -274212.4085 Press    =      -217.4715 
Volume   =    309019.2939 
---------------- Step     2100 ----- CPU =     66.6858 (sec) ----------------
TotEng   =    -25152.7009 KinEng   =     21434.1460 Temp     =       298.8907 
PotEng   =    -46586.8469 E_bond   =      2594.1372 E_angle  =     10986.3924 
E_dihed  =      5283.7228 E_impro  =       220.4723 E_vdwl   =     -2033.3820 
E_coul   =    210574.2717 E_long   =   -274212.4614 Press    =       330.4750 
Volume   =    308915.5720 
---------------- Step     2150 ----- CPU =     68.2522 (sec) ----------------
TotEng   =    -25403.0442 KinEng   =     21316.3701 Temp     =       297.2483 
PotEng   =    -46719.4143 E_bond   =      2548.5873 E_angle  =     10946.8828 
E_dihed  =      5305.2824 E_impro  =       214.0145 E_vdwl   =     -2102.5823 
E_coul   =    210587.1939 E_long   =   -274218.7927 Press    =       -37.1837 
Volume   =    308892.5073 
---------------- Step     2200 ----- CPU =     69.8476 (sec) ----------------
TotEng   =    -25305.1708 KinEng   =     21565.4413 Temp     =       300.7215 
PotEng   =    -46870.6121 E_bond   =      2486.3986 E_angle  =     11016.9658 
E_dihed  =      5254.0525 E_impro  =       221.6106 E_vdwl   =     -2286.5080 
E_coul   =    210654.2108 E_long   =   -274217.3424 Press    =      -211.6663 
Volume   =    309038.1868 
---------------- Step     2250 ----- CPU =     71.4128 (sec) ----------------
TotEng   =    -24973.6070 KinEng   =     21455.4391 Temp     =       299.1876 
PotEng   =    -46429.0461 E_bond   =      2605.6986 E_angle  =     11046.6112 
E_dihed  =      5288.0266 E_impro  =       227.4307 E_vdwl   =     -2190.7178 
E_coul   =    210813.6569 E_long   =   -274219.7522 Press    =      -401.9152 
Volume   =    308991.1709 
---------------- Step     2300 ----- CPU =     73.0064 (sec) ----------------
TotEng   =    -24689.0749 KinEng   =     21681.2381 Temp     =       302.3363 
PotEng   =    -46370.3130 E_bond   =      2562.5550 E_angle  =     11045.9430 
E_dihed  =      5317.5820 E_impro  =       236.2253 E_vdwl   =     -2135.0132 
E_coul   =    210818.0380 E_long   =   -274215.6431 Press    =       -61.4167 
Volume   =    308864.5014 
---------------- Step     2350 ----- CPU =     74.5724 (sec) ----------------
TotEng   =    -24758.9354 KinEng   =     21844.9839 Temp     =       304.6196 
PotEng   =    -46603.9193 E_bond   =      2548.9172 E_angle  =     11089.7083 
E_dihed  =      5250.9715 E_impro  =       214.7127 E_vdwl   =     -1991.8020 
E_coul   =    210490.4303 E_long   =   -274206.8572 Press    =         5.9083 
Volume   =    308732.3486 
---------------- Step     2400 ----- CPU =     76.1669 (sec) ----------------
TotEng   =    -25225.1319 KinEng   =     21422.8358 Temp     =       298.7330 
PotEng   =    -46647.9677 E_bond   =      2548.1425 E_angle  =     11002.2650 
E_dihed  =      5326.1936 E_impro  =       235.5975 E_vdwl   =     -2156.4312 
E_coul   =    210605.7035 E_long   =   -274209.4386 Press    =       262.1900 
Volume   =    308662.3475 
---------------- Step     2450 ----- CPU =     77.7364 (sec) ----------------
TotEng   =    -25559.3996 KinEng   =     21381.4912 Temp     =       298.1564 
PotEng   =    -46940.8908 E_bond   =      2476.3157 E_angle  =     10969.4410 
E_dihed  =      5269.0391 E_impro  =       217.1377 E_vdwl   =     -1989.6205 
E_coul   =    210321.6513 E_long   =   -274204.8550 Press    =       749.8424 
Volume   =    308547.0939 
---------------- Step     2500 ----- CPU =     79.3060 (sec) ----------------
TotEng   =    -25581.2636 KinEng   =     21368.3637 Temp     =       297.9734 
PotEng   =    -46949.6273 E_bond   =      2606.6327 E_angle  =     10876.7793 
E_dihed  =      5256.5597 E_impro  =       215.7872 E_vdwl   =     -2128.3790 
E_coul   =    210447.0328 E_long   =   -274224.0400 Press    =      -283.0167 
Volume   =    308476.9704 
---------------- Step     2550 ----- CPU =     80.8748 (sec) ----------------
TotEng   =    -25339.8092 KinEng   =     21477.6503 Temp     =       299.4973 
PotEng   =    -46817.4596 E_bond   =      2561.9328 E_angle  =     10929.5238 
E_dihed  =      5265.8485 E_impro  =       227.9099 E_vdwl   =     -2261.9262 
E_coul   =    210684.7418 E_long   =   -274225.4900 Press    =        59.0802 
Volume   =    308553.2589 
---------------- Step     2600 ----- CPU =     82.4718 (sec) ----------------
TotEng   =    -25038.3024 KinEng   =     21673.7002 Temp     =       302.2312 
PotEng   =    -46712.0026 E_bond   =      2564.3967 E_angle  =     11043.7047 
E_dihed  =      5296.1232 E_impro  =       220.7330 E_vdwl   =     -2041.5325 
E_coul   =    210420.7141 E_long   =   -274216.1419 Press    =      -308.4887 
Volume   =    308599.7650 
---------------- Step     2650 ----- CPU =     84.0690 (sec) ----------------
TotEng   =    -24897.8402 KinEng   =     21642.6686 Temp     =       301.7984 
PotEng   =    -46540.5088 E_bond   =      2623.3142 E_angle  =     10980.6344 
E_dihed  =      5327.5445 E_impro  =       198.1877 E_vdwl   =     -2160.0898 
E_coul   =    210699.3579 E_long   =   -274209.4577 Press    =       169.7444 
Volume   =    308610.0386 
---------------- Step     2700 ----- CPU =     85.6671 (sec) ----------------
TotEng   =    -25024.3543 KinEng   =     21480.8736 Temp     =       299.5423 
PotEng   =    -46505.2279 E_bond   =      2584.2770 E_angle  =     11042.5097 
E_dihed  =      5344.2957 E_impro  =       214.2406 E_vdwl   =     -2182.7514 
E_coul   =    210687.2553 E_long   =   -274195.0548 Press    =       -39.3279 
Volume   =    308814.4491 
---------------- Step     2750 ----- CPU =     87.2358 (sec) ----------------
TotEng   =    -25238.2300 KinEng   =     21535.4857 Temp     =       300.3038 
PotEng   =    -46773.7157 E_bond   =      2593.2055 E_angle  =     11033.1551 
E_dihed  =      5222.9522 E_impro  =       218.5985 E_vdwl   =     -2204.1330 
E_coul   =    210580.3838 E_long   =   -274217.8779 Press    =      -402.9089 
Volume   =    309018.5091 
---------------- Step     2800 ----- CPU =     88.8048 (sec) ----------------
TotEng   =    -25359.4299 KinEng   =     21354.5450 Temp     =       297.7807 
PotEng   =    -46713.9749 E_bond   =      2545.8436 E_angle  =     10861.4444 
E_dihed  =      5253.0694 E_impro  =       218.8400 E_vdwl   =     -2093.3816 
E_coul   =    210707.2067 E_long   =   -274206.9974 Press    =      -189.2445 
Volume   =    309097.8814 
---------------- Step     2850 ----- CPU =     90.4040 (sec) ----------------
TotEng   =    -25217.3537 KinEng   =     21392.4539 Temp     =       298.3093 
PotEng   =    -46609.8076 E_bond   =      2563.1262 E_angle  =     11054.3229 
E_dihed  =      5239.0732 E_impro  =       218.0488 E_vdwl   =     -2251.9781 
E_coul   =    210788.7997 E_long   =   -274221.2002 Press    =      -151.9474 
Volume   =    309177.5291 
---------------- Step     2900 ----- CPU =     91.9753 (sec) ----------------
TotEng   =    -24989.1071 KinEng   =     21715.6223 Temp     =       302.8157 
PotEng   =    -46704.7294 E_bond   =      2560.8376 E_angle  =     11071.1570 
E_dihed  =      5212.3449 E_impro  =       211.8335 E_vdwl   =     -2246.2153 
E_coul   =    210707.0275 E_long   =   -274221.7146 Press    =       -70.9972 
Volume   =    309092.4097 
---------------- Step     2950 ----- CPU =     93.5480 (sec) ----------------
TotEng   =    -24885.1377 KinEng   =     21641.1409 Temp     =       301.7771 
PotEng   =    -46526.2787 E_bond   =      2600.4145 E_angle  =     11044.3061 
E_dihed  =      5280.2712 E_impro  =       224.3038 E_vdwl   =     -2128.2267 
E_coul   =    210661.5004 E_long   =   -274208.8481 Press    =        51.3547 
Volume   =    308935.5423 
---------------- Step     3000 ----- CPU =     95.1230 (sec) ----------------
TotEng   =    -24953.5039 KinEng   =     21706.9824 Temp     =       302.6953 
PotEng   =    -46660.4863 E_bond   =      2570.3413 E_angle  =     11047.5089 
E_dihed  =      5249.8749 E_impro  =       207.2699 E_vdwl   =     -2263.5829 
E_coul   =    210749.4762 E_long   =   -274221.3745 Press    =      -451.7515 
Volume   =    308772.6720 
---------------- Step     3050 ----- CPU =     96.7270 (sec) ----------------
TotEng   =    -25158.5148 KinEng   =     21514.1923 Temp     =       300.0069 
PotEng   =    -46672.7072 E_bond   =      2592.6953 E_angle  =     11077.2455 
E_dihed  =      5235.3364 E_impro  =       229.0314 E_vdwl   =     -2216.6058 
E_coul   =    210630.5976 E_long   =   -274221.0075 Press    =       251.1003 
Volume   =    308614.7838 
---------------- Step     3100 ----- CPU =     98.3054 (sec) ----------------
TotEng   =    -25356.1187 KinEng   =     21320.9756 Temp     =       297.3126 
PotEng   =    -46677.0943 E_bond   =      2549.7575 E_angle  =     10989.5711 
E_dihed  =      5333.0734 E_impro  =       222.1268 E_vdwl   =     -2252.4057 
E_coul   =    210705.6285 E_long   =   -274224.8459 Press    =       303.9924 
Volume   =    308541.6962 
---------------- Step     3150 ----- CPU =     99.8855 (sec) ----------------
TotEng   =    -25315.8647 KinEng   =     21597.2994 Temp     =       301.1658 
PotEng   =    -46913.1641 E_bond   =      2467.5328 E_angle  =     10932.1783 
E_dihed  =      5290.4640 E_impro  =       225.5800 E_vdwl   =     -2126.6382 
E_coul   =    210522.4836 E_long   =   -274224.7646 Press    =       103.9211 
Volume   =    308370.4834 
---------------- Step     3200 ----- CPU =    101.4929 (sec) ----------------
TotEng   =    -25186.4393 KinEng   =     21492.7888 Temp     =       299.7084 
PotEng   =    -46679.2281 E_bond   =      2600.8532 E_angle  =     10928.5624 
E_dihed  =      5307.7271 E_impro  =       214.5911 E_vdwl   =     -2115.7470 
E_coul   =    210593.9202 E_long   =   -274209.1352 Press    =       -38.0178 
Volume   =    308130.2609 
---------------- Step     3250 ----- CPU =    103.0733 (sec) ----------------
TotEng   =    -25099.0543 KinEng   =     21550.6701 Temp     =       300.5156 
PotEng   =    -46649.7244 E_bond   =      2685.4002 E_angle  =     10971.7868 
E_dihed  =      5265.2898 E_impro  =       202.0478 E_vdwl   =     -2082.6092 
E_coul   =    210520.4284 E_long   =   -274212.0681 Press    =      -125.1176 
Volume   =    307927.1040 
---------------- Step     3300 ----- CPU =    104.6801 (sec) ----------------
TotEng   =    -25082.4671 KinEng   =     21480.8195 Temp     =       299.5415 
PotEng   =    -46563.2866 E_bond   =      2557.2145 E_angle  =     11049.6951 
E_dihed  =      5334.3451 E_impro  =       229.0042 E_vdwl   =     -2139.0396 
E_coul   =    210632.0490 E_long   =   -274226.5548 Press    =       373.6751 
Volume   =    307781.4243 
---------------- Step     3350 ----- CPU =    106.2567 (sec) ----------------
TotEng   =    -25172.0233 KinEng   =     21348.5730 Temp     =       297.6974 
PotEng   =    -46520.5963 E_bond   =      2658.8798 E_angle  =     11153.1140 
E_dihed  =      5280.5489 E_impro  =       212.6725 E_vdwl   =     -2167.8782 
E_coul   =    210553.4139 E_long   =   -274211.3472 Press    =      -335.8790 
Volume   =    307812.5277 
---------------- Step     3400 ----- CPU =    107.8364 (sec) ----------------
TotEng   =    -25242.8135 KinEng   =     21503.8891 Temp     =       299.8632 
PotEng   =    -46746.7027 E_bond   =      2518.0105 E_angle  =     11033.0313 
E_dihed  =      5222.1348 E_impro  =       225.2858 E_vdwl   =     -2027.5704 
E_coul   =    210488.3686 E_long   =   -274205.9633 Press    =       317.3384 
Volume   =    307880.9153 
---------------- Step     3450 ----- CPU =    109.4147 (sec) ----------------
TotEng   =    -25314.8296 KinEng   =     21500.1965 Temp     =       299.8117 
PotEng   =    -46815.0261 E_bond   =      2604.6146 E_angle  =     11099.7041 
E_dihed  =      5240.4043 E_impro  =       228.7643 E_vdwl   =     -1998.5571 
E_coul   =    210226.2626 E_long   =   -274216.2191 Press    =      -134.6265 
Volume   =    308017.5451 
---------------- Step     3500 ----- CPU =    111.0185 (sec) ----------------
TotEng   =    -25408.1435 KinEng   =     21431.6165 Temp     =       298.8554 
PotEng   =    -46839.7600 E_bond   =      2617.1853 E_angle  =     10975.1709 
E_dihed  =      5252.6828 E_impro  =       216.9473 E_vdwl   =     -2055.8526 
E_coul   =    210370.1290 E_long   =   -274216.0225 Press    =       236.2826 
Volume   =    308222.6462 
---------------- Step     3550 ----- CPU =    112.5895 (sec) ----------------
TotEng   =    -25408.7180 KinEng   =     21303.4231 Temp     =       297.0678 
PotEng   =    -46712.1411 E_bond   =      2599.0599 E_angle  =     11078.8783 
E_dihed  =      5258.9893 E_impro  =       218.0410 E_vdwl   =     -2248.8646 
E_coul   =    210595.5214 E_long   =   -274213.7664 Press    =      -421.0518 
Volume   =    308642.4404 
---------------- Step     3600 ----- CPU =    114.1878 (sec) ----------------
TotEng   =    -25249.4394 KinEng   =     21412.6328 Temp     =       298.5907 
PotEng   =    -46662.0721 E_bond   =      2554.0666 E_angle  =     11016.6871 
E_dihed  =      5288.6336 E_impro  =       231.3521 E_vdwl   =     -1984.3536 
E_coul   =    210430.1404 E_long   =   -274198.5985 Press    =        11.4825 
Volume   =    309079.3314 
---------------- Step     3650 ----- CPU =    115.7552 (sec) ----------------
TotEng   =    -25066.7539 KinEng   =     21572.4881 Temp     =       300.8198 
PotEng   =    -46639.2420 E_bond   =      2570.1087 E_angle  =     11021.3721 
E_dihed  =      5213.1884 E_impro  =       243.7940 E_vdwl   =     -1865.2385 
E_coul   =    210388.6791 E_long   =   -274211.1458 Press    =       287.6737 
Volume   =    309337.8935 
---------------- Step     3700 ----- CPU =    117.3489 (sec) ----------------
TotEng   =    -25064.7292 KinEng   =     21468.7980 Temp     =       299.3739 
PotEng   =    -46533.5272 E_bond   =      2612.0047 E_angle  =     11102.0796 
E_dihed  =      5306.8166 E_impro  =       242.4908 E_vdwl   =     -1902.3722 
E_coul   =    210304.9817 E_long   =   -274199.5285 Press    =       156.8045 
Volume   =    309495.5763 
---------------- Step     3750 ----- CPU =    118.9123 (sec) ----------------
TotEng   =    -25232.4236 KinEng   =     21503.6841 Temp     =       299.8604 
PotEng   =    -46736.1077 E_bond   =      2550.7118 E_angle  =     10971.9398 
E_dihed  =      5258.9372 E_impro  =       214.4981 E_vdwl   =     -2134.4905 
E_coul   =    210626.2459 E_long   =   -274223.9500 Press    =        63.0563 
Volume   =    309575.1091 
---------------- Step     3800 ----- CPU =    120.4778 (sec) ----------------
TotEng   =    -25262.1776 KinEng   =     21414.5132 Temp     =       298.6169 
PotEng   =    -46676.6908 E_bond   =      2650.8315 E_angle  =     11006.1272 
E_dihed  =      5269.0554 E_impro  =       224.5379 E_vdwl   =     -1985.2698 
E_coul   =    210380.6828 E_long   =   -274222.6558 Press    =       167.0676 
Volume   =    309622.3534 
---------------- Step     3850 ----- CPU =    122.0417 (sec) ----------------
TotEng   =    -25204.0198 KinEng   =     21419.1020 Temp     =       298.6809 
PotEng   =    -46623.1218 E_bond   =      2664.2128 E_angle  =     11058.3326 
E_dihed  =      5225.8667 E_impro  =       228.9947 E_vdwl   =     -2084.0330 
E_coul   =    210515.0779 E_long   =   -274231.5735 Press    =      -283.2622 
Volume   =    309501.9475 
---------------- Step     3900 ----- CPU =    123.6354 (sec) ----------------
TotEng   =    -25126.2498 KinEng   =     21548.0096 Temp     =       300.4785 
PotEng   =    -46674.2594 E_bond   =      2547.5707 E_angle  =     10999.3738 
E_dihed  =      5300.2188 E_impro  =       229.6385 E_vdwl   =     -1887.8049 
E_coul   =    210355.9994 E_long   =   -274219.2558 Press    =        11.3075 
Volume   =    309287.4653 
---------------- Step     3950 ----- CPU =    125.2022 (sec) ----------------
TotEng   =    -25133.1416 KinEng   =     21576.6608 Temp     =       300.8780 
PotEng   =    -46709.8025 E_bond   =      2585.2182 E_angle  =     11013.1824 
E_dihed  =      5302.5975 E_impro  =       214.1542 E_vdwl   =     -1931.2675 
E_coul   =    210323.7071 E_long   =   -274217.3944 Press    =       344.0364 
Volume   =    309258.6636 
---------------- Step     4000 ----- CPU =    126.7703 (sec) ----------------
TotEng   =    -25261.1612 KinEng   =     21563.5983 Temp     =       300.6958 
PotEng   =    -46824.7595 E_bond   =      2630.8488 E_angle  =     11054.3537 
E_dihed  =      5197.9272 E_impro  =       215.8854 E_vdwl   =     -2077.9405 
E_coul   =    210367.5699 E_long   =   -274213.4039 Press    =      -696.7128 
Volume   =    309347.7183 
---------------- Step     4050 ----- CPU =    128.3685 (sec) ----------------
TotEng   =    -25350.4649 KinEng   =     21488.9885 Temp     =       299.6554 
PotEng   =    -46839.4534 E_bond   =      2491.7756 E_angle  =     11138.5944 
E_dihed  =      5287.8009 E_impro  =       225.1306 E_vdwl   =     -2250.8178 
E_coul   =    210489.6275 E_long   =   -274221.5646 Press    =        16.6165 
Volume   =    309445.4678 
---------------- Step     4100 ----- CPU =    129.9344 (sec) ----------------
TotEng   =    -25266.0488 KinEng   =     21377.3498 Temp     =       298.0987 
PotEng   =    -46643.3986 E_bond   =      2506.1564 E_angle  =     11054.3222 
E_dihed  =      5262.4929 E_impro  =       238.9187 E_vdwl   =     -1968.4365 
E_coul   =    210501.5768 E_long   =   -274238.4291 Press    =       162.0433 
Volume   =    309516.3686 
---------------- Step     4150 ----- CPU =    131.5011 (sec) ----------------
TotEng   =    -25074.9549 KinEng   =     21637.9277 Temp     =       301.7323 
PotEng   =    -46712.8826 E_bond   =      2607.0870 E_angle  =     11028.1841 
E_dihed  =      5248.8391 E_impro  =       220.5632 E_vdwl   =     -1942.5141 
E_coul   =    210356.6808 E_long   =   -274231.7228 Press    =      -226.4177 
Volume   =    309450.2742 
---------------- Step     4200 ----- CPU =    133.0659 (sec) ----------------
TotEng   =    -25058.6681 KinEng   =     21562.2085 Temp     =       300.6765 
PotEng   =    -46620.8766 E_bond   =      2522.1443 E_angle  =     10946.2122 
E_dihed  =      5321.3397 E_impro  =       244.3152 E_vdwl   =     -2009.9806 
E_coul   =    210580.7895 E_long   =   -274225.6969 Press    =       191.6399 
Volume   =    309425.6044 
---------------- Step     4250 ----- CPU =    134.6308 (sec) ----------------
TotEng   =    -25204.6587 KinEng   =     21547.1879 Temp     =       300.4670 
PotEng   =    -46751.8466 E_bond   =      2546.3707 E_angle  =     10997.2623 
E_dihed  =      5299.0766 E_impro  =       217.9054 E_vdwl   =     -1945.9018 
E_coul   =    210344.8385 E_long   =   -274211.3982 Press    =       550.1328 
Volume   =    309369.2493 
---------------- Step     4300 ----- CPU =    136.2252 (sec) ----------------
TotEng   =    -25443.6054 KinEng   =     21179.4765 Temp     =       295.3394 
PotEng   =    -46623.0819 E_bond   =      2563.1432 E_angle  =     11019.1130 
E_dihed  =      5261.8247 E_impro  =       238.0455 E_vdwl   =     -2048.5942 
E_coul   =    210553.3212 E_long   =   -274209.9353 Press    =       -80.1578 
Volume   =    309416.4313 
---------------- Step     4350 ----- CPU =    137.7903 (sec) ----------------
TotEng   =    -25375.9006 KinEng   =     21222.0941 Temp     =       295.9337 
PotEng   =    -46597.9947 E_bond   =      2632.2605 E_angle  =     11074.3474 
E_dihed  =      5281.8824 E_impro  =       233.3229 E_vdwl   =     -2173.8099 
E_coul   =    210565.7011 E_long   =   -274211.6991 Press    =      -529.8811 
Volume   =    309344.9742 
---------------- Step     4400 ----- CPU =    139.3855 (sec) ----------------
TotEng   =    -24982.2982 KinEng   =     21658.2753 Temp     =       302.0161 
PotEng   =    -46640.5735 E_bond   =      2554.0339 E_angle  =     10990.5033 
E_dihed  =      5292.4509 E_impro  =       230.0417 E_vdwl   =     -2006.4135 
E_coul   =    210517.0420 E_long   =   -274218.2317 Press    =       691.3378 
Volume   =    309127.2276 
---------------- Step     4450 ----- CPU =    140.9545 (sec) ----------------
TotEng   =    -24736.6584 KinEng   =     21758.5354 Temp     =       303.4142 
PotEng   =    -46495.1938 E_bond   =      2605.2062 E_angle  =     11086.8185 
E_dihed  =      5317.2281 E_impro  =       230.0680 E_vdwl   =     -2064.3608 
E_coul   =    210559.9437 E_long   =   -274230.0976 Press    =       173.4370 
Volume   =    309082.1341 
---------------- Step     4500 ----- CPU =    142.5238 (sec) ----------------
TotEng   =    -24856.7014 KinEng   =     21723.2813 Temp     =       302.9226 
PotEng   =    -46579.9828 E_bond   =      2639.0326 E_angle  =     11043.8290 
E_dihed  =      5239.5782 E_impro  =       214.7788 E_vdwl   =     -2125.1851 
E_coul   =    210623.8710 E_long   =   -274215.8873 Press    =      -342.4049 
Volume   =    309111.8504 
---------------- Step     4550 ----- CPU =    144.1225 (sec) ----------------
TotEng   =    -25256.6411 KinEng   =     21381.8242 Temp     =       298.1611 
PotEng   =    -46638.4652 E_bond   =      2566.8109 E_angle  =     10968.3801 
E_dihed  =      5254.2459 E_impro  =       231.7772 E_vdwl   =     -2065.6561 
E_coul   =    210629.7709 E_long   =   -274223.7942 Press    =       276.4204 
Volume   =    309018.0331 
---------------- Step     4600 ----- CPU =    145.6911 (sec) ----------------
TotEng   =    -25525.9822 KinEng   =     21392.4756 Temp     =       298.3096 
PotEng   =    -46918.4579 E_bond   =      2572.1586 E_angle  =     10951.1699 
E_dihed  =      5253.5060 E_impro  =       223.0673 E_vdwl   =     -2069.7301 
E_coul   =    210358.0672 E_long   =   -274206.6968 Press    =        65.3353 
Volume   =    308890.6368 
---------------- Step     4650 ----- CPU =    147.2894 (sec) ----------------
TotEng   =    -25355.6099 KinEng   =     21465.4642 Temp     =       299.3274 
PotEng   =    -46821.0741 E_bond   =      2578.8789 E_angle  =     11025.3715 
E_dihed  =      5276.9126 E_impro  =       228.0414 E_vdwl   =     -2150.9813 
E_coul   =    210423.9140 E_long   =   -274203.2112 Press    =      -112.1536 
Volume   =    308640.3264 
---------------- Step     4700 ----- CPU =    148.8629 (sec) ----------------
TotEng   =    -24957.6724 KinEng   =     21601.3432 Temp     =       301.2222 
PotEng   =    -46559.0156 E_bond   =      2673.5284 E_angle  =     10998.4469 
E_dihed  =      5244.2422 E_impro  =       218.6021 E_vdwl   =     -2248.1952 
E_coul   =    210759.1591 E_long   =   -274204.7990 Press    =       -79.6325 
Volume   =    308357.2187 
---------------- Step     4750 ----- CPU =    150.4355 (sec) ----------------
TotEng   =    -24712.8448 KinEng   =     21768.1096 Temp     =       303.5477 
PotEng   =    -46480.9544 E_bond   =      2545.4273 E_angle  =     11145.8229 
E_dihed  =      5285.0381 E_impro  =       219.1938 E_vdwl   =     -1998.1501 
E_coul   =    210517.9608 E_long   =   -274196.2472 Press    =       228.3834 
Volume   =    308138.0235 
---------------- Step     4800 ----- CPU =    152.0374 (sec) ----------------
TotEng   =    -24924.0017 KinEng   =     21505.7846 Temp     =       299.8896 
PotEng   =    -46429.7863 E_bond   =      2603.5067 E_angle  =     11155.0248 
E_dihed  =      5321.4007 E_impro  =       232.0369 E_vdwl   =     -2117.0739 
E_coul   =    210576.8672 E_long   =   -274201.5488 Press    =        91.8675 
Volume   =    308144.0720 
---------------- Step     4850 ----- CPU =    153.6115 (sec) ----------------
TotEng   =    -25372.8580 KinEng   =     21558.4046 Temp     =       300.6234 
PotEng   =    -46931.2626 E_bond   =      2570.5270 E_angle  =     10949.8211 
E_dihed  =      5288.4087 E_impro  =       229.9542 E_vdwl   =     -2135.2879 
E_coul   =    210373.0118 E_long   =   -274207.6973 Press    =       289.8314 
Volume   =    308289.9940 
---------------- Step     4900 ----- CPU =    155.1853 (sec) ----------------
TotEng   =    -25578.8638 KinEng   =     21349.7192 Temp     =       297.7134 
PotEng   =    -46928.5830 E_bond   =      2525.3206 E_angle  =     10839.7896 
E_dihed  =      5315.6031 E_impro  =       229.1115 E_vdwl   =     -2180.0256 
E_coul   =    210552.2517 E_long   =   -274210.6339 Press    =      -280.5074 
Volume   =    308536.2472 
---------------- Step     4950 ----- CPU =    156.7864 (sec) ----------------
TotEng   =    -25379.7903 KinEng   =     21473.4120 Temp     =       299.4382 
PotEng   =    -46853.2023 E_bond   =      2627.9422 E_angle  =     11073.1439 
E_dihed  =      5292.4793 E_impro  =       226.6062 E_vdwl   =     -2072.9369 
E_coul   =    210221.2852 E_long   =   -274221.7222 Press    =      -466.4494 
Volume   =    308724.1952 
---------------- Step     5000 ----- CPU =    158.3612 (sec) ----------------
TotEng   =    -25088.5180 KinEng   =     21624.5763 Temp     =       301.5461 
PotEng   =    -46713.0943 E_bond   =      2546.4700 E_angle  =     11113.0504 
E_dihed  =      5296.9282 E_impro  =       231.6122 E_vdwl   =     -2188.1750 
E_coul   =    210504.2611 E_long   =   -274217.2411 Press    =       177.5587 
Volume   =    308772.8398 
---------------- Step     5050 ----- CPU =    159.9373 (sec) ----------------
TotEng   =    -24896.4493 KinEng   =     21764.3985 Temp     =       303.4959 
PotEng   =    -46660.8478 E_bond   =      2586.2604 E_angle  =     11094.2153 
E_dihed  =      5331.0643 E_impro  =       230.9176 E_vdwl   =     -2237.3748 
E_coul   =    210545.9680 E_long   =   -274211.8987 Press    =      -306.5666 
Volume   =    308889.6147 
---------------- Step     5100 ----- CPU =    161.5387 (sec) ----------------
TotEng   =    -25030.9509 KinEng   =     21458.9811 Temp     =       299.2370 
PotEng   =    -46489.9320 E_bond   =      2540.2432 E_angle  =     11061.8578 
E_dihed  =      5301.5618 E_impro  =       223.7641 E_vdwl   =     -1906.8209 
E_coul   =    210511.2754 E_long   =   -274221.8134 Press    =       310.3348 
Volume   =    308940.8746 
---------------- Step     5150 ----- CPU =    163.1104 (sec) ----------------
TotEng   =    -25309.3754 KinEng   =     21540.8282 Temp     =       300.3783 
PotEng   =    -46850.2036 E_bond   =      2500.4884 E_angle  =     11001.6571 
E_dihed  =      5248.4058 E_impro  =       217.1316 E_vdwl   =     -2113.1602 
E_coul   =    210511.8657 E_long   =   -274216.5920 Press    =       438.8527 
Volume   =    309060.9631 
---------------- Step     5200 ----- CPU =    164.7080 (sec) ----------------
TotEng   =    -25507.0975 KinEng   =     21270.6643 Temp     =       296.6110 
PotEng   =    -46777.7618 E_bond   =      2654.0765 E_angle  =     11061.3975 
E_dihed  =      5270.8406 E_impro  =       213.7264 E_vdwl   =     -2202.1616 
E_coul   =    210451.8693 E_long   =   -274227.5105 Press    =      -689.2412 
Volume   =    309094.8376 
---------------- Step     5250 ----- CPU =    166.2750 (sec) ----------------
TotEng   =    -25456.0668 KinEng   =     21491.0186 Temp     =       299.6837 
PotEng   =    -46947.0854 E_bond   =      2607.1537 E_angle  =     10994.9196 
E_dihed  =      5283.0417 E_impro  =       218.9356 E_vdwl   =     -2207.3380 
E_coul   =    210385.4955 E_long   =   -274229.2934 Press    =      -191.1547 
Volume   =    308969.2346 
---------------- Step     5300 ----- CPU =    167.8427 (sec) ----------------
TotEng   =    -25212.3596 KinEng   =     21518.3755 Temp     =       300.0652 
PotEng   =    -46730.7351 E_bond   =      2543.3347 E_angle  =     10996.1285 
E_dihed  =      5269.3403 E_impro  =       215.9919 E_vdwl   =     -2124.8414 
E_coul   =    210584.0483 E_long   =   -274214.7374 Press    =        80.8600 
Volume   =    308785.3189 
---------------- Step     5350 ----- CPU =    169.4421 (sec) ----------------
TotEng   =    -24956.5218 KinEng   =     21665.1797 Temp     =       302.1123 
PotEng   =    -46621.7015 E_bond   =      2546.7930 E_angle  =     11155.9043 
E_dihed  =      5331.9005 E_impro  =       218.0963 E_vdwl   =     -2255.3647 
E_coul   =    210596.9421 E_long   =   -274215.9729 Press    =        60.5769 
Volume   =    308487.1896 
---------------- Step     5400 ----- CPU =    171.0131 (sec) ----------------
TotEng   =    -24934.5117 KinEng   =     21778.6828 Temp     =       303.6951 
PotEng   =    -46713.1945 E_bond   =      2544.3552 E_angle  =     11105.9789 
E_dihed  =      5365.6285 E_impro  =       224.0225 E_vdwl   =     -2037.5054 
E_coul   =    210310.6507 E_long   =   -274226.3249 Press    =       326.0629 
Volume   =    308114.5549 
---------------- Step     5450 ----- CPU =    172.5854 (sec) ----------------
TotEng   =    -25248.6631 KinEng   =     21569.1008 Temp     =       300.7726 
PotEng   =    -46817.7639 E_bond   =      2629.2338 E_angle  =     11098.5266 
E_dihed  =      5321.0413 E_impro  =       229.2335 E_vdwl   =     -2081.3844 
E_coul   =    210202.5037 E_long   =   -274216.9184 Press    =      -257.5861 
Volume   =    307958.3556 
---------------- Step     5500 ----- CPU =    174.1852 (sec) ----------------
TotEng   =    -25633.4200 KinEng   =     21281.4064 Temp     =       296.7608 
PotEng   =    -46914.8264 E_bond   =      2570.2180 E_angle  =     10992.8753 
E_dihed  =      5296.4803 E_impro  =       214.1244 E_vdwl   =     -2145.4630 
E_coul   =    210370.4933 E_long   =   -274213.5548 Press    =       321.7174 
Volume   =    307853.7332 
---------------- Step     5550 ----- CPU =    175.7861 (sec) ----------------
TotEng   =    -25761.4379 KinEng   =     21302.9059 Temp     =       297.0606 
PotEng   =    -47064.3438 E_bond   =      2636.1390 E_angle  =     10949.9236 
E_dihed  =      5315.7747 E_impro  =       212.9371 E_vdwl   =     -2071.0927 
E_coul   =    210107.0777 E_long   =   -274215.1032 Press    =      -327.1287 
Volume   =    307900.4462 
---------------- Step     5600 ----- CPU =    177.3587 (sec) ----------------
TotEng   =    -25602.6717 KinEng   =     21535.9578 Temp     =       300.3104 
PotEng   =    -47138.6296 E_bond   =      2496.6446 E_angle  =     11125.5188 
E_dihed  =      5247.9421 E_impro  =       215.6474 E_vdwl   =     -2105.7006 
E_coul   =    210099.4404 E_long   =   -274218.1223 Press    =       130.9373 
Volume   =    307973.6396 
---------------- Step     5650 ----- CPU =    178.9300 (sec) ----------------
TotEng   =    -25335.2977 KinEng   =     21573.0792 Temp     =       300.8280 
PotEng   =    -46908.3770 E_bond   =      2584.1557 E_angle  =     11034.3339 
E_dihed  =      5290.9586 E_impro  =       214.0315 E_vdwl   =     -2079.5574 
E_coul   =    210267.4060 E_long   =   -274219.7051 Press    =      -317.9362 
Volume   =    308020.0715 
---------------- Step     5700 ----- CPU =    180.5323 (sec) ----------------
TotEng   =    -25011.0649 KinEng   =     21586.5744 Temp     =       301.0162 
PotEng   =    -46597.6393 E_bond   =      2601.9364 E_angle  =     11168.7170 
E_dihed  =      5290.9733 E_impro  =       211.1062 E_vdwl   =     -2032.9145 
E_coul   =    210379.2816 E_long   =   -274216.7394 Press    =      -134.5909 
Volume   =    308070.8823 
---------------- Step     5750 ----- CPU =    182.1043 (sec) ----------------
TotEng   =    -24935.2118 KinEng   =     21620.7655 Temp     =       301.4930 
PotEng   =    -46555.9773 E_bond   =      2626.1139 E_angle  =     11120.6615 
E_dihed  =      5304.4412 E_impro  =       230.0655 E_vdwl   =     -1841.4715 
E_coul   =    210203.6530 E_long   =   -274199.4410 Press    =       164.7158 
Volume   =    308249.0207 
---------------- Step     5800 ----- CPU =    183.7036 (sec) ----------------
TotEng   =    -25177.1994 KinEng   =     21487.8529 Temp     =       299.6396 
PotEng   =    -46665.0523 E_bond   =      2557.4124 E_angle  =     11112.7560 
E_dihed  =      5341.5787 E_impro  =       242.1687 E_vdwl   =     -2095.7779 
E_coul   =    210403.2636 E_long   =   -274226.4539 Press    =       -41.4000 
Volume   =    308499.8854 
---------------- Step     5850 ----- CPU =    185.3023 (sec) ----------------
TotEng   =    -25410.0749 KinEng   =     21429.0176 Temp     =       298.8192 
PotEng   =    -46839.0925 E_bond   =      2584.9740 E_angle  =     11029.4910 
E_dihed  =      5318.0620 E_impro  =       218.3562 E_vdwl   =     -1979.0167 
E_coul   =    210211.0627 E_long   =   -274222.0217 Press    =      -241.3462 
Volume   =    308674.7765 
---------------- Step     5900 ----- CPU =    186.8732 (sec) ----------------
TotEng   =    -25497.1247 KinEng   =     21419.4050 Temp     =       298.6851 
PotEng   =    -46916.5297 E_bond   =      2579.6199 E_angle  =     11072.8720 
E_dihed  =      5272.4782 E_impro  =       223.4019 E_vdwl   =     -2031.1667 
E_coul   =    210185.0330 E_long   =   -274218.7679 Press    =      -361.8114 
Volume   =    308843.5632 
---------------- Step     5950 ----- CPU =    188.4414 (sec) ----------------
TotEng   =    -25484.4304 KinEng   =     21446.3946 Temp     =       299.0615 
PotEng   =    -46930.8250 E_bond   =      2526.5468 E_angle  =     11133.5134 
E_dihed  =      5377.5683 E_impro  =       225.1119 E_vdwl   =     -2067.9796 
E_coul   =    210085.5769 E_long   =   -274211.1627 Press    =       -21.9960 
Volume   =    308949.8251 
---------------- Step     6000 ----- CPU =    190.0083 (sec) ----------------
TotEng   =    -25351.8675 KinEng   =     21616.2376 Temp     =       301.4299 
PotEng   =    -46968.1051 E_bond   =      2541.1657 E_angle  =     10986.8187 
E_dihed  =      5318.1869 E_impro  =       222.7114 E_vdwl   =     -2121.2154 
E_coul   =    210300.4908 E_long   =   -274216.2631 Press    =      -438.4682 
Volume   =    308968.3411 
---------------- Step     6050 ----- CPU =    191.5760 (sec) ----------------
TotEng   =    -25114.2477 KinEng   =     21551.6131 Temp     =       300.5287 
PotEng   =    -46665.8608 E_bond   =      2634.1681 E_angle  =     11201.6976 
E_dihed  =      5323.6909 E_impro  =       222.9855 E_vdwl   =     -2211.7354 
E_coul   =    210387.1861 E_long   =   -274223.8534 Press    =      -431.3610 
Volume   =    308940.0659 
---------------- Step     6100 ----- CPU =    193.1726 (sec) ----------------
TotEng   =    -24984.2436 KinEng   =     21647.2969 Temp     =       301.8630 
PotEng   =    -46631.5405 E_bond   =      2548.9812 E_angle  =     11215.6318 
E_dihed  =      5286.0906 E_impro  =       246.7180 E_vdwl   =     -2174.9442 
E_coul   =    210454.5452 E_long   =   -274208.5632 Press    =        70.1855 
Volume   =    308711.5328 
---------------- Step     6150 ----- CPU =    194.7435 (sec) ----------------
TotEng   =    -25083.7457 KinEng   =     21672.6387 Temp     =       302.2164 
PotEng   =    -46756.3844 E_bond   =      2587.5494 E_angle  =     10999.9164 
E_dihed  =      5359.5785 E_impro  =       247.3343 E_vdwl   =     -2126.8508 
E_coul   =    210387.9318 E_long   =   -274211.8439 Press    =      -145.7805 
Volume   =    308427.5861 
---------------- Step     6200 ----- CPU =    196.3458 (sec) ----------------
TotEng   =    -25283.5986 KinEng   =     21527.4726 Temp     =       300.1921 
PotEng   =    -46811.0711 E_bond   =      2612.0709 E_angle  =     11091.2116 
E_dihed  =      5329.4672 E_impro  =       221.9780 E_vdwl   =     -2068.9884 
E_coul   =    210230.4531 E_long   =   -274227.2635 Press    =      -130.5957 
Volume   =    308140.4326 
---------------- Step     6250 ----- CPU =    197.9487 (sec) ----------------
TotEng   =    -25384.4925 KinEng   =     21505.8697 Temp     =       299.8908 
PotEng   =    -46890.3622 E_bond   =      2557.0433 E_angle  =     11045.0015 
E_dihed  =      5255.2086 E_impro  =       226.2747 E_vdwl   =     -1960.2703 
E_coul   =    210192.4863 E_long   =   -274206.1063 Press    =       241.2446 
Volume   =    307764.2903 
---------------- Step     6300 ----- CPU =    199.5248 (sec) ----------------
TotEng   =    -25436.1961 KinEng   =     21633.1957 Temp     =       301.6663 
PotEng   =    -47069.3918 E_bond   =      2564.8756 E_angle  =     10989.0065 
E_dihed  =      5326.7664 E_impro  =       222.7214 E_vdwl   =     -2041.8812 
E_coul   =    210090.9302 E_long   =   -274221.8107 Press    =       155.2612 
Volume   =    307587.7019 
---------------- Step     6350 ----- CPU =    201.1017 (sec) ----------------
TotEng   =    -25502.5774 KinEng   =     21404.7932 Temp     =       298.4814 
PotEng   =    -46907.3706 E_bond   =      2590.8008 E_angle  =     11054.2529 
E_dihed  =      5300.4395 E_impro  =       216.2740 E_vdwl   =     -2090.9775 
E_coul   =    210247.5010 E_long   =   -274225.6612 Press    =       101.7012 
Volume   =    307558.3199 
---------------- Step     6400 ----- CPU =    202.7084 (sec) ----------------
TotEng   =    -25358.5240 KinEng   =     21611.7607 Temp     =       301.3674 
PotEng   =    -46970.2847 E_bond   =      2587.7355 E_angle  =     11064.3803 
E_dihed  =      5271.1959 E_impro  =       214.0007 E_vdwl   =     -2293.5411 
E_coul   =    210412.5535 E_long   =   -274226.6096 Press    =      -380.7682 
Volume   =    307754.7395 
---------------- Step     6450 ----- CPU =    204.2869 (sec) ----------------
TotEng   =    -25229.0163 KinEng   =     21555.3151 Temp     =       300.5803 
PotEng   =    -46784.3314 E_bond   =      2588.1721 E_angle  =     11218.0528 
E_dihed  =      5318.8209 E_impro  =       208.8042 E_vdwl   =     -2202.6590 
E_coul   =    210296.6701 E_long   =   -274212.1924 Press    =      -152.3550 
Volume   =    307845.4836 
---------------- Step     6500 ----- CPU =    205.8651 (sec) ----------------
TotEng   =    -25155.5618 KinEng   =     21613.2705 Temp     =       301.3885 
PotEng   =    -46768.8323 E_bond   =      2616.1090 E_angle  =     11005.2321 
E_dihed  =      5347.0093 E_impro  =       220.4251 E_vdwl   =     -2061.9593 
E_coul   =    210333.8684 E_long   =   -274229.5169 Press    =       394.1014 
Volume   =    307991.1420 
---------------- Step     6550 ----- CPU =    207.4436 (sec) ----------------
TotEng   =    -25131.6475 KinEng   =     21576.1058 Temp     =       300.8702 
PotEng   =    -46707.7533 E_bond   =      2583.8696 E_angle  =     11095.6924 
E_dihed  =      5304.2907 E_impro  =       219.7866 E_vdwl   =     -2123.9913 
E_coul   =    210428.5950 E_long   =   -274215.9962 Press    =        83.8829 
Volume   =    308251.9013 
---------------- Step     6600 ----- CPU =    209.0522 (sec) ----------------
TotEng   =    -25174.3093 KinEng   =     21572.9804 Temp     =       300.8267 
PotEng   =    -46747.2897 E_bond   =      2582.3958 E_angle  =     11079.7677 
E_dihed  =      5274.5424 E_impro  =       239.4263 E_vdwl   =     -2135.1258 
E_coul   =    210430.1392 E_long   =   -274218.4353 Press    =      -523.2174 
Volume   =    308357.6542 
---------------- Step     6650 ----- CPU =    210.6328 (sec) ----------------
TotEng   =    -25232.3101 KinEng   =     21386.0287 Temp     =       298.2197 
PotEng   =    -46618.3389 E_bond   =      2649.7384 E_angle  =     11011.0011 
E_dihed  =      5348.5514 E_impro  =       229.9449 E_vdwl   =     -2202.9382 
E_coul   =    210559.7547 E_long   =   -274214.3911 Press    =        70.7491 
Volume   =    308359.0812 
---------------- Step     6700 ----- CPU =    212.2135 (sec) ----------------
TotEng   =    -25216.7056 KinEng   =     21605.0359 Temp     =       301.2737 
PotEng   =    -46821.7415 E_bond   =      2611.4236 E_angle  =     10953.6761 
E_dihed  =      5290.7088 E_impro  =       219.4643 E_vdwl   =     -2103.0306 
E_coul   =    210411.2668 E_long   =   -274205.2504 Press    =       321.4194 
Volume   =    308336.3653 
---------------- Step     6750 ----- CPU =    213.7947 (sec) ----------------
TotEng   =    -25209.7016 KinEng   =     21643.7035 Temp     =       301.8129 
PotEng   =    -46853.4051 E_bond   =      2554.6290 E_angle  =     11092.0778 
E_dihed  =      5301.5615 E_impro  =       225.8738 E_vdwl   =     -2001.0451 
E_coul   =    210205.4671 E_long   =   -274231.9692 Press    =      -138.3452 
Volume   =    308307.9405 
---------------- Step     6800 ----- CPU =    215.4034 (sec) ----------------
TotEng   =    -25361.1642 KinEng   =     21687.8741 Temp     =       302.4288 
PotEng   =    -47049.0383 E_bond   =      2608.0966 E_angle  =     10839.5987 
E_dihed  =      5258.2035 E_impro  =       213.3036 E_vdwl   =     -2178.5158 
E_coul   =    210434.6894 E_long   =   -274224.4143 Press    =       171.1500 
Volume   =    308280.0146 
---------------- Step     6850 ----- CPU =    216.9833 (sec) ----------------
TotEng   =    -25515.2548 KinEng   =     21469.7674 Temp     =       299.3874 
PotEng   =    -46985.0222 E_bond   =      2571.1052 E_angle  =     11008.6615 
E_dihed  =      5243.3247 E_impro  =       222.9236 E_vdwl   =     -2000.7604 
E_coul   =    210191.9742 E_long   =   -274222.2510 Press    =       240.9115 
Volume   =    308295.1593 
---------------- Step     6900 ----- CPU =    218.5911 (sec) ----------------
TotEng   =    -25438.4455 KinEng   =     21652.0642 Temp     =       301.9295 
PotEng   =    -47090.5097 E_bond   =      2556.2531 E_angle  =     11022.8676 
E_dihed  =      5167.9990 E_impro  =       234.9990 E_vdwl   =     -2180.2021 
E_coul   =    210339.0231 E_long   =   -274231.4495 Press    =      -404.0206 
Volume   =    308377.3813 
---------------- Step     6950 ----- CPU =    220.1709 (sec) ----------------
TotEng   =    -25208.2413 KinEng   =     21517.5466 Temp     =       300.0537 
PotEng   =    -46725.7879 E_bond   =      2622.4234 E_angle  =     11027.4646 
E_dihed  =      5276.6718 E_impro  =       205.2914 E_vdwl   =     -2204.4965 
E_coul   =    210568.0564 E_long   =   -274221.1990 Press    =      -188.4834 
Volume   =    308430.1057 
---------------- Step     7000 ----- CPU =    221.7468 (sec) ----------------
TotEng   =    -25035.4817 KinEng   =     21508.1101 Temp     =       299.9221 
PotEng   =    -46543.5919 E_bond   =      2572.5527 E_angle  =     11194.9170 
E_dihed  =      5336.2699 E_impro  =       222.8132 E_vdwl   =     -2076.5669 
E_coul   =    210428.5278 E_long   =   -274222.1057 Press    =       -49.9514 
Volume   =    308395.5473 
---------------- Step     7050 ----- CPU =    223.3204 (sec) ----------------
TotEng   =    -25025.7500 KinEng   =     21626.3017 Temp     =       301.5702 
PotEng   =    -46652.0517 E_bond   =      2598.0486 E_angle  =     11071.2678 
E_dihed  =      5290.4713 E_impro  =       225.8545 E_vdwl   =     -1865.1834 
E_coul   =    210249.2292 E_long   =   -274221.7397 Press    =       234.9603 
Volume   =    308234.3128 
---------------- Step     7100 ----- CPU =    224.8934 (sec) ----------------
TotEng   =    -25187.7176 KinEng   =     21580.9243 Temp     =       300.9374 
PotEng   =    -46768.6420 E_bond   =      2657.9385 E_angle  =     11045.1993 
E_dihed  =      5268.1755 E_impro  =       232.0367 E_vdwl   =     -2104.4140 
E_coul   =    210368.3147 E_long   =   -274235.8927 Press    =      -451.4893 
Volume   =    308109.1174 
---------------- Step     7150 ----- CPU =    226.4950 (sec) ----------------
TotEng   =    -25424.9859 KinEng   =     21590.3442 Temp     =       301.0688 
PotEng   =    -47015.3301 E_bond   =      2634.0459 E_angle  =     10935.0097 
E_dihed  =      5237.6981 E_impro  =       223.3195 E_vdwl   =     -2108.2740 
E_coul   =    210277.0151 E_long   =   -274214.1445 Press    =        39.2397 
Volume   =    307990.1540 
---------------- Step     7200 ----- CPU =    228.0698 (sec) ----------------
TotEng   =    -25636.9601 KinEng   =     21429.8449 Temp     =       298.8307 
PotEng   =    -47066.8051 E_bond   =      2553.7836 E_angle  =     10966.0048 
E_dihed  =      5245.2820 E_impro  =       224.6742 E_vdwl   =     -1865.8664 
E_coul   =    210032.3150 E_long   =   -274222.9983 Press    =       122.3313 
Volume   =    307944.6187 
---------------- Step     7250 ----- CPU =    229.6444 (sec) ----------------
TotEng   =    -25631.2010 KinEng   =     21385.8474 Temp     =       298.2172 
PotEng   =    -47017.0485 E_bond   =      2593.6278 E_angle  =     11067.4008 
E_dihed  =      5216.6904 E_impro  =       249.4805 E_vdwl   =     -1985.0851 
E_coul   =    210053.2706 E_long   =   -274212.4334 Press    =       214.4080 
Volume   =    307925.4711 
---------------- Step     7300 ----- CPU =    231.2160 (sec) ----------------
TotEng   =    -25393.5175 KinEng   =     21434.2495 Temp     =       298.8921 
PotEng   =    -46827.7670 E_bond   =      2603.3237 E_angle  =     11053.4788 
E_dihed  =      5302.1996 E_impro  =       244.6974 E_vdwl   =     -1825.8104 
E_coul   =    210009.9698 E_long   =   -274215.6259 Press    =      -116.0610 
Volume   =    308059.2794 
---------------- Step     7350 ----- CPU =    232.8166 (sec) ----------------
TotEng   =    -25109.4960 KinEng   =     21646.1283 Temp     =       301.8467 
PotEng   =    -46755.6243 E_bond   =      2625.1864 E_angle  =     11137.0733 
E_dihed  =      5261.3703 E_impro  =       230.2706 E_vdwl   =     -2037.5352 
E_coul   =    210259.5734 E_long   =   -274231.5630 Press    =        80.9289 
Volume   =    308328.1933 
---------------- Step     7400 ----- CPU =    234.3865 (sec) ----------------
TotEng   =    -25070.5936 KinEng   =     21565.0924 Temp     =       300.7167 
PotEng   =    -46635.6860 E_bond   =      2659.1965 E_angle  =     11173.3026 
E_dihed  =      5257.9847 E_impro  =       220.9204 E_vdwl   =     -2003.4001 
E_coul   =    210256.4967 E_long   =   -274200.1868 Press    =       -84.6733 
Volume   =    308604.1384 
---------------- Step     7450 ----- CPU =    235.9539 (sec) ----------------
TotEng   =    -25266.4513 KinEng   =     21630.1220 Temp     =       301.6235 
PotEng   =    -46896.5733 E_bond   =      2527.0687 E_angle  =     11120.9544 
E_dihed  =      5310.3605 E_impro  =       230.9213 E_vdwl   =     -1887.7506 
E_coul   =    210027.7226 E_long   =   -274225.8503 Press    =       521.0337 
Volume   =    308694.0168 
---------------- Step     7500 ----- CPU =    237.5201 (sec) ----------------
TotEng   =    -25538.5646 KinEng   =     21324.5727 Temp     =       297.3627 
PotEng   =    -46863.1373 E_bond   =      2537.4204 E_angle  =     11053.5781 
E_dihed  =      5342.2625 E_impro  =       225.7374 E_vdwl   =     -2086.1383 
E_coul   =    210290.7752 E_long   =   -274226.7727 Press    =       -95.0115 
Volume   =    308819.8184 
---------------- Step     7550 ----- CPU =    239.1175 (sec) ----------------
TotEng   =    -25594.5142 KinEng   =     21270.9596 Temp     =       296.6151 
PotEng   =    -46865.4738 E_bond   =      2624.9817 E_angle  =     10976.2475 
E_dihed  =      5285.8546 E_impro  =       229.7337 E_vdwl   =     -2048.9922 
E_coul   =    210275.6687 E_long   =   -274208.9678 Press    =      -164.8780 
Volume   =    308677.7760 
---------------- Step     7600 ----- CPU =    240.6871 (sec) ----------------
TotEng   =    -25396.2139 KinEng   =     21487.4245 Temp     =       299.6336 
PotEng   =    -46883.6383 E_bond   =      2638.7968 E_angle  =     10941.1387 
E_dihed  =      5316.3414 E_impro  =       223.9615 E_vdwl   =     -2020.8341 
E_coul   =    210252.4885 E_long   =   -274235.5312 Press    =        13.3838 
Volume   =    308378.7889 
---------------- Step     7650 ----- CPU =    242.2855 (sec) ----------------
TotEng   =    -25170.6239 KinEng   =     21572.0786 Temp     =       300.8141 
PotEng   =    -46742.7025 E_bond   =      2573.8586 E_angle  =     11121.5725 
E_dihed  =      5290.4678 E_impro  =       222.6354 E_vdwl   =     -2041.4104 
E_coul   =    210312.0774 E_long   =   -274221.9037 Press    =        21.6071 
Volume   =    308106.2415 
---------------- Step     7700 ----- CPU =    243.8565 (sec) ----------------
TotEng   =    -25023.8526 KinEng   =     21574.4817 Temp     =       300.8476 
PotEng   =    -46598.3343 E_bond   =      2622.8166 E_angle  =     11113.3599 
E_dihed  =      5273.0108 E_impro  =       217.1165 E_vdwl   =     -1909.5641 
E_coul   =    210306.2715 E_long   =   -274221.3453 Press    =       389.1457 
Volume   =    307937.3289 
---------------- Step     7750 ----- CPU =    245.4577 (sec) ----------------
TotEng   =    -25024.3729 KinEng   =     21450.8165 Temp     =       299.1231 
PotEng   =    -46475.1893 E_bond   =      2595.8609 E_angle  =     11148.8985 
E_dihed  =      5300.5789 E_impro  =       222.6955 E_vdwl   =     -2090.9491 
E_coul   =    210573.9504 E_long   =   -274226.2245 Press    =       365.4448 
Volume   =    307820.7186 
---------------- Step     7800 ----- CPU =    247.0289 (sec) ----------------
TotEng   =    -25141.8054 KinEng   =     21516.0339 Temp     =       300.0326 
PotEng   =    -46657.8393 E_bond   =      2566.8711 E_angle  =     11226.9356 
E_dihed  =      5310.1312 E_impro  =       218.8288 E_vdwl   =     -2196.3874 
E_coul   =    210431.6653 E_long   =   -274215.8838 Press    =      -500.6717 
Volume   =    307770.1710 
---------------- Step     7850 ----- CPU =    248.6032 (sec) ----------------
TotEng   =    -25332.8379 KinEng   =     21492.5585 Temp     =       299.7052 
PotEng   =    -46825.3964 E_bond   =      2576.7821 E_angle  =     11075.1053 
E_dihed  =      5276.3261 E_impro  =       230.5002 E_vdwl   =     -2027.4523 
E_coul   =    210264.9667 E_long   =   -274221.6246 Press    =       426.3086 
Volume   =    307721.5005 
---------------- Step     7900 ----- CPU =    250.2110 (sec) ----------------
TotEng   =    -25452.8482 KinEng   =     21425.4275 Temp     =       298.7691 
PotEng   =    -46878.2757 E_bond   =      2618.8057 E_angle  =     11007.2733 
E_dihed  =      5316.4418 E_impro  =       224.0844 E_vdwl   =     -2346.5916 
E_coul   =    210522.3710 E_long   =   -274220.6602 Press    =      -316.6583 
Volume   =    307846.2440 
---------------- Step     7950 ----- CPU =    251.7892 (sec) ----------------
TotEng   =    -25428.7081 KinEng   =     21446.9506 Temp     =       299.0692 
PotEng   =    -46875.6588 E_bond   =      2613.6226 E_angle  =     11111.0758 
E_dihed  =      5298.2535 E_impro  =       215.8705 E_vdwl   =     -2271.9565 
E_coul   =    210377.8750 E_long   =   -274220.3996 Press    =      -220.5767 
Volume   =    307924.1719 
---------------- Step     8000 ----- CPU =    253.3688 (sec) ----------------
TotEng   =    -25399.5155 KinEng   =     21289.3873 Temp     =       296.8721 
PotEng   =    -46688.9029 E_bond   =      2623.6125 E_angle  =     11154.5409 
E_dihed  =      5233.0395 E_impro  =       226.2308 E_vdwl   =     -2032.3154 
E_coul   =    210334.8443 E_long   =   -274228.8554 Press    =        53.3459 
Volume   =    307962.8574 
---------------- Step     8050 ----- CPU =    254.9777 (sec) ----------------
TotEng   =    -25266.7979 KinEng   =     21533.3861 Temp     =       300.2745 
PotEng   =    -46800.1840 E_bond   =      2584.0118 E_angle  =     10978.0141 
E_dihed  =      5313.8463 E_impro  =       221.3234 E_vdwl   =     -2160.4862 
E_coul   =    210484.7701 E_long   =   -274221.6634 Press    =       -37.9043 
Volume   =    308035.7239 
---------------- Step     8100 ----- CPU =    256.5591 (sec) ----------------
TotEng   =    -25100.6866 KinEng   =     21570.2778 Temp     =       300.7890 
PotEng   =    -46670.9644 E_bond   =      2631.8418 E_angle  =     11063.1016 
E_dihed  =      5359.3436 E_impro  =       221.3482 E_vdwl   =     -2079.6624 
E_coul   =    210353.7045 E_long   =   -274220.6418 Press    =       -63.4378 
Volume   =    308087.5029 
---------------- Step     8150 ----- CPU =    258.1396 (sec) ----------------
TotEng   =    -25083.9171 KinEng   =     21616.2248 Temp     =       301.4297 
PotEng   =    -46700.1419 E_bond   =      2630.0994 E_angle  =     11163.6860 
E_dihed  =      5283.3860 E_impro  =       247.1195 E_vdwl   =     -2200.0729 
E_coul   =    210395.4843 E_long   =   -274219.8441 Press    =      -208.5709 
Volume   =    308212.5757 
---------------- Step     8200 ----- CPU =    259.7176 (sec) ----------------
TotEng   =    -25204.0558 KinEng   =     21429.8596 Temp     =       298.8309 
PotEng   =    -46633.9154 E_bond   =      2586.7720 E_angle  =     11095.5622 
E_dihed  =      5355.2875 E_impro  =       242.0108 E_vdwl   =     -2002.7966 
E_coul   =    210302.5913 E_long   =   -274213.3426 Press    =       -67.4076 
Volume   =    308279.1565 
---------------- Step     8250 ----- CPU =    261.3235 (sec) ----------------
TotEng   =    -25366.0342 KinEng   =     21456.6783 Temp     =       299.2049 
PotEng   =    -46822.7125 E_bond   =      2631.1957 E_angle  =     10991.7126 
E_dihed  =      5308.6037 E_impro  =       233.0823 E_vdwl   =     -2006.0691 
E_coul   =    210244.0060 E_long   =   -274225.2437 Press    =        48.3507 
Volume   =    308323.3235 
---------------- Step     8300 ----- CPU =    262.8994 (sec) ----------------
TotEng   =    -25505.0899 KinEng   =     21428.1974 Temp     =       298.8077 
PotEng   =    -46933.2873 E_bond   =      2604.0747 E_angle  =     10989.8980 
E_dihed  =      5279.9717 E_impro  =       221.1182 E_vdwl   =     -1999.1502 
E_coul   =    210196.7493 E_long   =   -274225.9489 Press    =      -203.1041 
Volume   =    308292.6615 
---------------- Step     8350 ----- CPU =    264.4769 (sec) ----------------
TotEng   =    -25526.5010 KinEng   =     21382.9850 Temp     =       298.1773 
PotEng   =    -46909.4860 E_bond   =      2577.1939 E_angle  =     11137.4662 
E_dihed  =      5227.4147 E_impro  =       218.4018 E_vdwl   =     -2045.9117 
E_coul   =    210196.5104 E_long   =   -274220.5614 Press    =       -12.0779 
Volume   =    308259.5488 
---------------- Step     8400 ----- CPU =    266.0842 (sec) ----------------
TotEng   =    -25396.4139 KinEng   =     21554.3155 Temp     =       300.5664 
PotEng   =    -46950.7294 E_bond   =      2550.8439 E_angle  =     11066.2058 
E_dihed  =      5243.9432 E_impro  =       239.3149 E_vdwl   =     -2011.6776 
E_coul   =    210166.3812 E_long   =   -274205.7408 Press    =       -92.8631 
Volume   =    308273.1109 
---------------- Step     8450 ----- CPU =    267.6594 (sec) ----------------
TotEng   =    -25267.8483 KinEng   =     21417.2272 Temp     =       298.6547 
PotEng   =    -46685.0755 E_bond   =      2562.7691 E_angle  =     11143.7971 
E_dihed  =      5211.9072 E_impro  =       230.2397 E_vdwl   =     -2042.6109 
E_coul   =    210432.1836 E_long   =   -274223.3614 Press    =       316.0629 
Volume   =    308280.0570 
---------------- Step     8500 ----- CPU =    269.2350 (sec) ----------------
TotEng   =    -25199.1812 KinEng   =     21469.6038 Temp     =       299.3851 
PotEng   =    -46668.7850 E_bond   =      2601.5245 E_angle  =     11291.8935 
E_dihed  =      5302.2603 E_impro  =       224.9208 E_vdwl   =     -2117.7627 
E_coul   =    210249.7216 E_long   =   -274221.3430 Press    =      -330.2907 
Volume   =    308248.8465 
---------------- Step     8550 ----- CPU =    270.8394 (sec) ----------------
TotEng   =    -25316.5819 KinEng   =     21561.5093 Temp     =       300.6667 
PotEng   =    -46878.0913 E_bond   =      2580.2214 E_angle  =     11083.7434 
E_dihed  =      5277.9590 E_impro  =       229.3511 E_vdwl   =     -1996.4410 
E_coul   =    210181.3546 E_long   =   -274234.2797 Press    =       209.4947 
Volume   =    308209.5184 
---------------- Step     8600 ----- CPU =    272.4152 (sec) ----------------
TotEng   =    -25506.9892 KinEng   =     21382.7005 Temp     =       298.1733 
PotEng   =    -46889.6897 E_bond   =      2578.0205 E_angle  =     11111.8326 
E_dihed  =      5242.9233 E_impro  =       222.5432 E_vdwl   =     -2031.0370 
E_coul   =    210193.8793 E_long   =   -274207.8516 Press    =       -17.8520 
Volume   =    308152.2363 
---------------- Step     8650 ----- CPU =    274.0183 (sec) ----------------
TotEng   =    -25544.6087 KinEng   =     21507.1224 Temp     =       299.9083 
PotEng   =    -47051.7311 E_bond   =      2573.2848 E_angle  =     10971.4422 
E_dihed  =      5239.1231 E_impro  =       209.5191 E_vdwl   =     -1972.7763 
E_coul   =    210129.5690 E_long   =   -274201.8931 Press    =       132.9086 
Volume   =    308070.7433 
---------------- Step     8700 ----- CPU =    275.5951 (sec) ----------------
TotEng   =    -25374.9397 KinEng   =     21589.3463 Temp     =       301.0549 
PotEng   =    -46964.2860 E_bond   =      2565.9816 E_angle  =     11126.3869 
E_dihed  =      5271.0960 E_impro  =       204.8703 E_vdwl   =     -2053.2226 
E_coul   =    210145.5818 E_long   =   -274224.9800 Press    =        53.8634 
Volume   =    307889.9276 
---------------- Step     8750 ----- CPU =    277.1698 (sec) ----------------
TotEng   =    -25270.8663 KinEng   =     21677.6485 Temp     =       302.2862 
PotEng   =    -46948.5149 E_bond   =      2636.6868 E_angle  =     11046.0946 
E_dihed  =      5228.7275 E_impro  =       207.2542 E_vdwl   =     -2081.2905 
E_coul   =    210235.8242 E_long   =   -274221.8117 Press    =        59.4529 
Volume   =    307746.6501 
---------------- Step     8800 ----- CPU =    278.7467 (sec) ----------------
TotEng   =    -25320.3475 KinEng   =     21485.7624 Temp     =       299.6104 
PotEng   =    -46806.1099 E_bond   =      2616.3191 E_angle  =     11253.5665 
E_dihed  =      5234.2662 E_impro  =       228.1978 E_vdwl   =     -2046.6308 
E_coul   =    210123.3984 E_long   =   -274215.2272 Press    =       273.0482 
Volume   =    307670.0679 
---------------- Step     8850 ----- CPU =    280.3232 (sec) ----------------
TotEng   =    -25441.7724 KinEng   =     21276.3654 Temp     =       296.6905 
PotEng   =    -46718.1378 E_bond   =      2654.6897 E_angle  =     11124.5866 
E_dihed  =      5291.6045 E_impro  =       214.7051 E_vdwl   =     -2032.1566 
E_coul   =    210253.9112 E_long   =   -274225.4784 Press    =      -258.2258 
Volume   =    307659.4988 
---------------- Step     8900 ----- CPU =    281.9251 (sec) ----------------
TotEng   =    -25465.4857 KinEng   =     21477.1471 Temp     =       299.4903 
PotEng   =    -46942.6328 E_bond   =      2614.2280 E_angle  =     11059.3138 
E_dihed  =      5260.6122 E_impro  =       217.8007 E_vdwl   =     -2106.2249 
E_coul   =    210238.0148 E_long   =   -274226.3774 Press    =       -56.3307 
Volume   =    307682.2884 
---------------- Step     8950 ----- CPU =    283.4965 (sec) ----------------
TotEng   =    -25336.8702 KinEng   =     21462.8863 Temp     =       299.2914 
PotEng   =    -46799.7565 E_bond   =      2653.6916 E_angle  =     11100.5479 
E_dihed  =      5325.1447 E_impro  =       223.5559 E_vdwl   =     -2018.0184 
E_coul   =    210133.5754 E_long   =   -274218.2537 Press    =      -347.8288 
Volume   =    307629.6441 
---------------- Step     9000 ----- CPU =    285.0697 (sec) ----------------
TotEng   =    -25239.1251 KinEng   =     21658.1497 Temp     =       302.0143 
PotEng   =    -46897.2748 E_bond   =      2568.4619 E_angle  =     11159.5928 
E_dihed  =      5265.0771 E_impro  =       232.5557 E_vdwl   =     -1999.2755 
E_coul   =    210115.4766 E_long   =   -274239.1634 Press    =       202.2906 
Volume   =    307668.1652 
---------------- Step     9050 ----- CPU =    286.6430 (sec) ----------------
TotEng   =    -25302.7071 KinEng   =     21542.1568 Temp     =       300.3968 
PotEng   =    -46844.8639 E_bond   =      2634.9074 E_angle  =     11047.0749 
E_dihed  =      5296.1659 E_impro  =       215.5499 E_vdwl   =     -1972.5680 
E_coul   =    210162.5674 E_long   =   -274228.5615 Press    =        71.7796 
Volume   =    307765.2768 
---------------- Step     9100 ----- CPU =    288.2181 (sec) ----------------
TotEng   =    -25420.6110 KinEng   =     21563.0589 Temp     =       300.6883 
PotEng   =    -46983.6699 E_bond   =      2602.5737 E_angle  =     11100.0804 
E_dihed  =      5214.1558 E_impro  =       222.9625 E_vdwl   =     -2052.6670 
E_coul   =    210150.0010 E_long   =   -274220.7762 Press    =      -571.4523 
Volume   =    307960.7265 
---------------- Step     9150 ----- CPU =    289.7901 (sec) ----------------
TotEng   =    -25512.1593 KinEng   =     21526.3179 Temp     =       300.1760 
PotEng   =    -47038.4772 E_bond   =      2548.0863 E_angle  =     11128.5978 
E_dihed  =      5206.3102 E_impro  =       215.2914 E_vdwl   =     -2152.7749 
E_coul   =    210232.4237 E_long   =   -274216.4117 Press    =      -214.3813 
Volume   =    308065.1864 
---------------- Step     9200 ----- CPU =    291.3904 (sec) ----------------
TotEng   =    -25471.8650 KinEng   =     21369.7208 Temp     =       297.9923 
PotEng   =    -46841.5857 E_bond   =      2565.9640 E_angle  =     11163.2904 
E_dihed  =      5227.3221 E_impro  =       216.7134 E_vdwl   =     -2243.9483 
E_coul   =    210441.1345 E_long   =   -274212.0617 Press    =      -138.2217 
Volume   =    308050.8720 
---------------- Step     9250 ----- CPU =    292.9613 (sec) ----------------
TotEng   =    -25328.1876 KinEng   =     21531.9945 Temp     =       300.2551 
PotEng   =    -46860.1821 E_bond   =      2644.0139 E_angle  =     10987.1616 
E_dihed  =      5270.6272 E_impro  =       215.4869 E_vdwl   =     -2116.1279 
E_coul   =    210374.5912 E_long   =   -274235.9351 Press    =      -339.0913 
Volume   =    307959.8678 
---------------- Step     9300 ----- CPU =    294.5333 (sec) ----------------
TotEng   =    -25236.0671 KinEng   =     21640.4500 Temp     =       301.7675 
PotEng   =    -46876.5170 E_bond   =      2605.4262 E_angle  =     11090.1778 
E_dihed  =      5291.7390 E_impro  =       217.8928 E_vdwl   =     -2077.9606 
E_coul   =    210208.2925 E_long   =   -274212.0848 Press    =        77.7785 
Volume   =    307822.3925 
---------------- Step     9350 ----- CPU =    296.1384 (sec) ----------------
TotEng   =    -25298.6099 KinEng   =     21627.7833 Temp     =       301.5909 
PotEng   =    -46926.3932 E_bond   =      2525.3061 E_angle  =     11174.7017 
E_dihed  =      5253.4330 E_impro  =       230.4773 E_vdwl   =     -1855.2353 
E_coul   =    209947.8957 E_long   =   -274202.9717 Press    =       331.4518 
Volume   =    307595.9498 
---------------- Step     9400 ----- CPU =    297.7171 (sec) ----------------
TotEng   =    -25534.0828 KinEng   =     21535.5697 Temp     =       300.3050 
PotEng   =    -47069.6524 E_bond   =      2600.0154 E_angle  =     11085.3237 
E_dihed  =      5284.9882 E_impro  =       222.3194 E_vdwl   =     -1870.5114 
E_coul   =    209818.6329 E_long   =   -274210.4205 Press    =      -107.8544 
Volume   =    307555.8078 
---------------- Step     9450 ----- CPU =    299.3242 (sec) ----------------
TotEng   =    -25746.5255 KinEng   =     21439.0083 Temp     =       298.9585 
PotEng   =    -47185.5338 E_bond   =      2611.5818 E_angle  =     11022.8037 
E_dihed  =      5218.5657 E_impro  =       211.8034 E_vdwl   =     -1974.8988 
E_coul   =    209961.8471 E_long   =   -274237.2367 Press    =         8.6294 
Volume   =    307710.7399 
---------------- Step     9500 ----- CPU =    300.8992 (sec) ----------------
TotEng   =    -25813.7217 KinEng   =     21308.9402 Temp     =       297.1447 
PotEng   =    -47122.6619 E_bond   =      2583.3866 E_angle  =     11096.3432 
E_dihed  =      5297.0652 E_impro  =       220.6443 E_vdwl   =     -2085.8771 
E_coul   =    209980.4874 E_long   =   -274214.7115 Press    =      -191.3305 
Volume   =    307951.7681 
---------------- Step     9550 ----- CPU =    302.4750 (sec) ----------------
TotEng   =    -25527.1542 KinEng   =     21481.3532 Temp     =       299.5490 
PotEng   =    -47008.5075 E_bond   =      2579.8282 E_angle  =     11138.2424 
E_dihed  =      5222.8001 E_impro  =       213.1054 E_vdwl   =     -2130.0816 
E_coul   =    210191.5816 E_long   =   -274223.9834 Press    =       136.9331 
Volume   =    308107.5277 
---------------- Step     9600 ----- CPU =    304.0494 (sec) ----------------
TotEng   =    -25192.5968 KinEng   =     21756.6478 Temp     =       303.3878 
PotEng   =    -46949.2446 E_bond   =      2545.1076 E_angle  =     11133.2400 
E_dihed  =      5212.1611 E_impro  =       232.1302 E_vdwl   =     -2143.5215 
E_coul   =    210297.8872 E_long   =   -274226.2491 Press    =       -63.8423 
Volume   =    308096.0293 
---------------- Step     9650 ----- CPU =    305.6529 (sec) ----------------
TotEng   =    -25106.2139 KinEng   =     21555.0902 Temp     =       300.5772 
PotEng   =    -46661.3041 E_bond   =      2619.4871 E_angle  =     11126.5664 
E_dihed  =      5298.4307 E_impro  =       224.4561 E_vdwl   =     -2048.4601 
E_coul   =    210332.7002 E_long   =   -274214.4843 Press    =      -176.9183 
Volume   =    308101.2160 
---------------- Step     9700 ----- CPU =    307.2277 (sec) ----------------
TotEng   =    -25233.9475 KinEng   =     21586.4122 Temp     =       301.0140 
PotEng   =    -46820.3598 E_bond   =      2651.6688 E_angle  =     11234.7533 
E_dihed  =      5187.2245 E_impro  =       222.3833 E_vdwl   =     -2043.4718 
E_coul   =    210142.2540 E_long   =   -274215.1720 Press    =       173.4770 
Volume   =    308016.5937 
---------------- Step     9750 ----- CPU =    308.8046 (sec) ----------------
TotEng   =    -25511.3302 KinEng   =     21475.7062 Temp     =       299.4702 
PotEng   =    -46987.0363 E_bond   =      2552.0630 E_angle  =     11036.4515 
E_dihed  =      5220.2530 E_impro  =       226.1134 E_vdwl   =     -2042.5396 
E_coul   =    210238.1477 E_long   =   -274217.5253 Press    =       379.3112 
Volume   =    307913.8683 
---------------- Step     9800 ----- CPU =    310.4120 (sec) ----------------
TotEng   =    -25672.7532 KinEng   =     21296.2921 Temp     =       296.9684 
PotEng   =    -46969.0454 E_bond   =      2626.6694 E_angle  =     11181.2407 
E_dihed  =      5196.8469 E_impro  =       210.0909 E_vdwl   =     -2004.8746 
E_coul   =    210041.0031 E_long   =   -274220.0218 Press    =      -351.8905 
Volume   =    307864.6350 
---------------- Step     9850 ----- CPU =    311.9898 (sec) ----------------
TotEng   =    -25651.1689 KinEng   =     21492.8199 Temp     =       299.7089 
PotEng   =    -47143.9888 E_bond   =      2571.5058 E_angle  =     10926.0773 
E_dihed  =      5265.0390 E_impro  =       245.7958 E_vdwl   =     -1963.7290 
E_coul   =    210032.0841 E_long   =   -274220.7619 Press    =      -171.0938 
Volume   =    307939.3710 
---------------- Step     9900 ----- CPU =    313.5976 (sec) ----------------
TotEng   =    -25531.6779 KinEng   =     21512.0095 Temp     =       299.9764 
PotEng   =    -47043.6874 E_bond   =      2598.5997 E_angle  =     11028.7340 
E_dihed  =      5205.4534 E_impro  =       243.2479 E_vdwl   =     -1846.7599 
E_coul   =    209943.7058 E_long   =   -274216.6683 Press    =       301.5881 
Volume   =    308183.1410 
---------------- Step     9950 ----- CPU =    315.1758 (sec) ----------------
TotEng   =    -25408.2830 KinEng   =     21622.7371 Temp     =       301.5205 
PotEng   =    -47031.0201 E_bond   =      2582.0680 E_angle  =     11207.1553 
E_dihed  =      5216.3969 E_impro  =       239.9881 E_vdwl   =     -2125.7520 
E_coul   =    210066.9038 E_long   =   -274217.7803 Press    =       -61.0879 
Volume   =    308625.2087 
---------------- Step    10000 ----- CPU =    316.7834 (sec) ----------------
TotEng   =    -25430.8412 KinEng   =     21540.1388 Temp     =       300.3687 
PotEng   =    -46970.9799 E_bond   =      2551.3636 E_angle  =     11069.7976 
E_dihed  =      5224.6129 E_impro  =       226.8018 E_vdwl   =     -1979.3108 
E_coul   =    210131.3219 E_long   =   -274195.5670 Press    =       -91.3824 
Volume   =    309039.8056 
Loop time of 316.783 on 2 procs for 10000 steps with 32000 atoms

Performance: 5.455 ns/day, 4.400 hours/ns, 31.567 timesteps/s
99.8% CPU use with 2 MPI tasks x 1 OpenMP threads

MPI task timing breakdown:
Section |  min time  |  avg time  |  max time  |%varavg| %total
---------------------------------------------------------------
Pair    | 217.31     | 217.33     | 217.36     |   0.2 | 68.61
Bond    | 12.56      | 13.022     | 13.485     |  12.8 |  4.11
Kspace  | 31.787     | 32.285     | 32.783     |   8.8 | 10.19
Neigh   | 26.001     | 26.006     | 26.011     |   0.1 |  8.21
Comm    | 6.7933     | 6.8059     | 6.8186     |   0.5 |  2.15
Output  | 0.011126   | 0.012637   | 0.014148   |   1.3 |  0.00
Modify  | 20.35      | 20.413     | 20.476     |   1.4 |  6.44
Other   |            | 0.9082     |            |       |  0.29

Nlocal:          16000 ave       16116 max       15884 min
Histogram: 1 0 0 0 0 0 0 0 0 1
Nghost:        33428.5 ave       33475 max       33382 min
Histogram: 1 0 0 0 0 0 0 0 0 1
Neighs:    5.99614e+06 ave 6.07484e+06 max 5.91744e+06 min
Histogram: 1 0 0 0 0 0 0 0 0 1

Total # of neighbors = 11992277
Ave neighs/atom = 374.75866
Ave special neighs/atom = 7.431875
Neighbor list builds = 1072
Dangerous builds = 0
Total wall time: 0:05:17
Intel(R) VTune(TM) Profiler 2022.2.0 collection completed successfully. Use the "aps --report /home/ubuntu/lammps/bench/aps_result_20220703" command to generate textual and HTML reports for the profiling session.
