LAMMPS (7 Jan 2022)
  using 1 OpenMP thread(s) per MPI task
Reading data file ...
  orthogonal box = (-27.5 -38.5 -36.3646) to (27.5 38.5 36.3615)
  1 by 1 by 1 MPI processor grid
  reading atoms ...
  32000 atoms
  reading velocities ...
  32000 velocities
  scanning bonds ...
  4 = max bonds/atom
  scanning angles ...
  8 = max angles/atom
  scanning dihedrals ...
  18 = max dihedrals/atom
  scanning impropers ...
  2 = max impropers/atom
  reading bonds ...
  27723 bonds
  reading angles ...
  40467 angles
  reading dihedrals ...
  56829 dihedrals
  reading impropers ...
  1034 impropers
Finding 1-2 1-3 1-4 neighbors ...
  special bond factors lj:    0        0        0       
  special bond factors coul:  0        0        0       
     4 = max # of 1-2 neighbors
    12 = max # of 1-3 neighbors
    24 = max # of 1-4 neighbors
    26 = max # of special neighbors
  special bonds CPU = 0.012 seconds
  read_data CPU = 0.206 seconds
Finding SHAKE clusters ...
    1617 = # of size 2 clusters
    3633 = # of size 3 clusters
     747 = # of size 4 clusters
    4233 = # of frozen angles
  find clusters CPU = 0.006 seconds
PPPM initialization ...
  using 12-bit tables for long-range coulomb (../kspace.cpp:340)
  G vector (1/distance) = 0.29817009
  grid = 36 45 45
  stencil order = 7
  estimated absolute RMS force accuracy = 0.0023869977
  estimated relative force accuracy = 7.1883728e-06
  using single precision MKL FFT
  3d grid and FFT values/proc = 131220 72900
----------------------------------------------------------
Using INTEL Package without Coprocessor.
Compiler: Intel Classic C++ 20.21.5 / Intel(R) C++ g++ 9.3 mode
SIMD compiler directives: Enabled
Precision: mixed
----------------------------------------------------------
  generated 2278 of 2278 mixed pair_coeff terms from arithmetic mixing rule
Neighbor list info ...
  update every 1 steps, delay 5 steps, check yes
  max neighbors/atom: 2000, page size: 100000
  master list distance cutoff = 12
  ghost atom cutoff = 12
  binsize = 6, bins = 10 13 13
  1 neighbor lists, perpetual/occasional/extra = 1 0 0
  (1) pair lj/charmm/coul/long/intel, perpetual
      attributes: half, newton on, intel
      pair build: half/bin/newton/intel
      stencil: half/bin/3d
      bin: intel
Setting up Verlet run ...
  Unit style    : real
  Current step  : 0
  Time step     : 2
Per MPI rank memory allocation (min/avg/max) = 372 | 372 | 372 Mbytes
---------------- Step        0 ----- CPU =      0.0000 (sec) ----------------
TotEng   =    -25359.0690 KinEng   =     21444.8313 Temp     =       299.0397 
PotEng   =    -46803.9003 E_bond   =      2537.9949 E_angle  =     10921.3721 
E_dihed  =      5211.7865 E_impro  =       213.5135 E_vdwl   =     -2307.8639 
E_coul   =    260369.1642 E_long   =   -323749.8676 Press    =      -152.6956 
Volume   =    307995.0335 
---------------- Step       50 ----- CPU =      3.4189 (sec) ----------------
TotEng   =    -25333.5238 KinEng   =     21500.7856 Temp     =       299.8199 
PotEng   =    -46834.3094 E_bond   =      2471.6530 E_angle  =     10836.6248 
E_dihed  =      5239.4663 E_impro  =       227.1417 E_vdwl   =     -1992.6725 
E_coul   =    260144.9072 E_long   =   -323761.4299 Press    =       234.8571 
Volume   =    308031.1148 
---------------- Step      100 ----- CPU =      6.8874 (sec) ----------------
TotEng   =    -25289.8734 KinEng   =     21589.2004 Temp     =       301.0528 
PotEng   =    -46879.0738 E_bond   =      2567.7785 E_angle  =     10781.3548 
E_dihed  =      5198.5185 E_impro  =       216.7809 E_vdwl   =     -1900.7694 
E_coul   =    260012.3779 E_long   =   -323755.1150 Press    =        12.3290 
Volume   =    308132.5006 
---------------- Step      150 ----- CPU =     10.3556 (sec) ----------------
TotEng   =    -25257.7605 KinEng   =     21549.9535 Temp     =       300.5056 
PotEng   =    -46807.7140 E_bond   =      2555.5491 E_angle  =     10855.7639 
E_dihed  =      5263.9541 E_impro  =       203.0926 E_vdwl   =     -2064.3865 
E_coul   =    260118.4856 E_long   =   -323740.1728 Press    =       246.0343 
Volume   =    308515.0583 
---------------- Step      200 ----- CPU =     13.7625 (sec) ----------------
TotEng   =    -25061.3543 KinEng   =     21488.6628 Temp     =       299.6509 
PotEng   =    -46550.0170 E_bond   =      2493.5989 E_angle  =     11072.1235 
E_dihed  =      5224.8316 E_impro  =       232.1034 E_vdwl   =     -2107.8937 
E_coul   =    260293.9754 E_long   =   -323758.7561 Press    =       108.7504 
Volume   =    308994.3141 
---------------- Step      250 ----- CPU =     17.2273 (sec) ----------------
TotEng   =    -24886.8819 KinEng   =     21545.7077 Temp     =       300.4464 
PotEng   =    -46432.5896 E_bond   =      2556.3200 E_angle  =     11114.7629 
E_dihed  =      5251.4102 E_impro  =       221.0533 E_vdwl   =     -2160.0167 
E_coul   =    260344.0101 E_long   =   -323760.1294 Press    =      -144.4292 
Volume   =    309423.1689 
---------------- Step      300 ----- CPU =     20.6308 (sec) ----------------
TotEng   =    -24897.0379 KinEng   =     21556.0657 Temp     =       300.5908 
PotEng   =    -46453.1036 E_bond   =      2567.3291 E_angle  =     10908.9432 
E_dihed  =      5221.4862 E_impro  =       224.0515 E_vdwl   =     -2165.7993 
E_coul   =    260520.0690 E_long   =   -323729.1833 Press    =      -376.7775 
Volume   =    309815.7296 
---------------- Step      350 ----- CPU =     24.0286 (sec) ----------------
TotEng   =    -25091.3071 KinEng   =     21536.9282 Temp     =       300.3239 
PotEng   =    -46628.2353 E_bond   =      2580.8353 E_angle  =     10976.2938 
E_dihed  =      5205.1474 E_impro  =       209.5770 E_vdwl   =     -2078.8445 
E_coul   =    260222.3914 E_long   =   -323743.6358 Press    =      -335.3839 
Volume   =    310124.5095 
---------------- Step      400 ----- CPU =     27.4836 (sec) ----------------
TotEng   =    -25317.1676 KinEng   =     21462.0063 Temp     =       299.2792 
PotEng   =    -46779.1739 E_bond   =      2525.5640 E_angle  =     10953.2412 
E_dihed  =      5166.8630 E_impro  =       217.6760 E_vdwl   =     -2154.9552 
E_coul   =    260274.6637 E_long   =   -323762.2265 Press    =       196.3183 
Volume   =    310265.6883 
---------------- Step      450 ----- CPU =     30.9421 (sec) ----------------
TotEng   =    -25424.6826 KinEng   =     21414.5251 Temp     =       298.6171 
PotEng   =    -46839.2077 E_bond   =      2512.0286 E_angle  =     10763.6715 
E_dihed  =      5281.8592 E_impro  =       223.8720 E_vdwl   =     -2111.3670 
E_coul   =    260237.5788 E_long   =   -323746.8508 Press    =       218.1320 
Volume   =    310334.3390 
---------------- Step      500 ----- CPU =     34.3394 (sec) ----------------
TotEng   =    -25076.3759 KinEng   =     21419.2858 Temp     =       298.6835 
PotEng   =    -46495.6617 E_bond   =      2605.3058 E_angle  =     10894.9937 
E_dihed  =      5248.9921 E_impro  =       207.4123 E_vdwl   =     -2201.4684 
E_coul   =    260488.6369 E_long   =   -323739.5340 Press    =      -213.2647 
Volume   =    310323.0073 
---------------- Step      550 ----- CPU =     37.7386 (sec) ----------------
TotEng   =    -24633.6111 KinEng   =     21758.2583 Temp     =       303.4103 
PotEng   =    -46391.8694 E_bond   =      2558.6578 E_angle  =     10992.4998 
E_dihed  =      5189.7700 E_impro  =       242.9078 E_vdwl   =     -1944.2776 
E_coul   =    260312.3413 E_long   =   -323743.7684 Press    =       275.4604 
Volume   =    310243.5390 
---------------- Step      600 ----- CPU =     41.1970 (sec) ----------------
TotEng   =    -24574.3251 KinEng   =     21819.3639 Temp     =       304.2624 
PotEng   =    -46393.6890 E_bond   =      2568.8896 E_angle  =     11088.8904 
E_dihed  =      5246.4316 E_impro  =       223.0912 E_vdwl   =     -2172.7513 
E_coul   =    260398.3952 E_long   =   -323746.6357 Press    =        -3.5138 
Volume   =    310305.7264 
Loop time of 41.1971 on 1 procs for 600 steps with 32000 atoms

Performance: 2.517 ns/day, 9.536 hours/ns, 14.564 timesteps/s
100.0% CPU use with 1 MPI tasks x 1 OpenMP threads

MPI task timing breakdown:
Section |  min time  |  avg time  |  max time  |%varavg| %total
---------------------------------------------------------------
Pair    | 25.934     | 25.934     | 25.934     |   0.0 | 62.95
Bond    | 1.5619     | 1.5619     | 1.5619     |   0.0 |  3.79
Kspace  | 5.3193     | 5.3193     | 5.3193     |   0.0 | 12.91
Neigh   | 3.1635     | 3.1635     | 3.1635     |   0.0 |  7.68
Comm    | 0.73047    | 0.73047    | 0.73047    |   0.0 |  1.77
Output  | 0.0011228  | 0.0011228  | 0.0011228  |   0.0 |  0.00
Modify  | 4.383      | 4.383      | 4.383      |   0.0 | 10.64
Other   |            | 0.1043     |            |       |  0.25

Nlocal:          32000 ave       32000 max       32000 min
Histogram: 1 0 0 0 0 0 0 0 0 0
Nghost:          47551 ave       47551 max       47551 min
Histogram: 1 0 0 0 0 0 0 0 0 0
Neighs:    1.19453e+07 ave 1.19453e+07 max 1.19453e+07 min
Histogram: 1 0 0 0 0 0 0 0 0 0

Total # of neighbors = 11945288
Ave neighs/atom = 373.29025
Ave special neighs/atom = 7.431875
Neighbor list builds = 66
Dangerous builds = 0
Total wall time: 0:00:41
Intel(R) VTune(TM) Profiler 2022.2.0 collection completed successfully. Use the "aps --report /home/ubuntu/lammps/bench/aps_result_20220601" command to generate textual and HTML reports for the profiling session.
