LAMMPS (7 Jan 2022)
  using 1 OpenMP thread(s) per MPI task
Reading data file ...
  orthogonal box = (-27.5 -38.5 -36.3646) to (27.5 38.5 36.3615)
  1 by 2 by 2 MPI processor grid
  reading atoms ...
  32000 atoms
  reading velocities ...
  32000 velocities
  scanning bonds ...
  4 = max bonds/atom
  scanning angles ...
  8 = max angles/atom
  scanning dihedrals ...
  18 = max dihedrals/atom
  scanning impropers ...
  2 = max impropers/atom
  reading bonds ...
  27723 bonds
  reading angles ...
  40467 angles
  reading dihedrals ...
  56829 dihedrals
  reading impropers ...
  1034 impropers
Finding 1-2 1-3 1-4 neighbors ...
  special bond factors lj:    0        0        0       
  special bond factors coul:  0        0        0       
     4 = max # of 1-2 neighbors
    12 = max # of 1-3 neighbors
    24 = max # of 1-4 neighbors
    26 = max # of special neighbors
  special bonds CPU = 0.008 seconds
  read_data CPU = 0.231 seconds
Replicating atoms ...
  orthogonal box = (-27.5 -38.5 -36.3646) to (82.5 115.5 109.0876)
  1 by 2 by 2 MPI processor grid
  256000 atoms
  221784 bonds
  323736 angles
  454632 dihedrals
  8272 impropers
Finding 1-2 1-3 1-4 neighbors ...
  special bond factors lj:    0        0        0       
  special bond factors coul:  0        0        0       
     4 = max # of 1-2 neighbors
    12 = max # of 1-3 neighbors
    24 = max # of 1-4 neighbors
    26 = max # of special neighbors
  special bonds CPU = 0.052 seconds
  replicate CPU = 0.110 seconds
Finding SHAKE clusters ...
   12936 = # of size 2 clusters
   29064 = # of size 3 clusters
    5976 = # of size 4 clusters
   33864 = # of frozen angles
  find clusters CPU = 0.024 seconds
PPPM initialization ...
  using 12-bit tables for long-range coulomb (../kspace.cpp:340)
  G vector (1/distance) = 0.25045586
  grid = 45 60 60
  stencil order = 7
  estimated absolute RMS force accuracy = 0.032785255
  estimated relative force accuracy = 9.8731821e-05
  using single precision MKL FFT
  3d grid and FFT values/proc = 71188 40500
----------------------------------------------------------
Using INTEL Package without Coprocessor.
Compiler: Intel Classic C++ 20.21.5 / Intel(R) C++ g++ 9.3 mode
SIMD compiler directives: Enabled
Precision: single
----------------------------------------------------------
  generated 2278 of 2278 mixed pair_coeff terms from arithmetic mixing rule
Neighbor list info ...
  update every 1 steps, delay 5 steps, check yes
  max neighbors/atom: 2000, page size: 100000
  master list distance cutoff = 12
  ghost atom cutoff = 12
  binsize = 6, bins = 19 26 25
  1 neighbor lists, perpetual/occasional/extra = 1 0 0
  (1) pair lj/charmm/coul/long/intel, perpetual
      attributes: half, newton on, intel
      pair build: half/bin/newton/intel
      stencil: half/bin/3d
      bin: intel
Setting up Verlet run ...
  Unit style    : real
  Current step  : 0
  Time step     : 2
Per MPI rank memory allocation (min/avg/max) = 715.3 | 715.3 | 715.3 Mbytes
---------------- Step        0 ----- CPU =      0.0000 (sec) ----------------
TotEng   =   -202868.0498 KinEng   =    171558.6503 Temp     =       299.0288 
PotEng   =   -374426.7000 E_bond   =     20303.9346 E_angle  =     87370.9570 
E_dihed  =     41694.2744 E_impro  =      1708.1116 E_vdwl   =    -18463.0122 
E_coul   =   1670246.7173 E_long   =  -2177287.6828 Press    =      -148.4187 
Volume   =   2463960.2680 
---------------- Step       50 ----- CPU =      6.9019 (sec) ----------------
TotEng   =   -202646.4036 KinEng   =    172008.0699 Temp     =       299.8121 
PotEng   =   -374654.4735 E_bond   =     19774.0864 E_angle  =     86693.3945 
E_dihed  =     41917.3408 E_impro  =      1817.0110 E_vdwl   =    -15944.8882 
E_coul   =   1668431.3555 E_long   =  -2177342.7736 Press    =       238.9801 
Volume   =   2464255.7543 
---------------- Step      100 ----- CPU =     13.2773 (sec) ----------------
TotEng   =   -202323.0576 KinEng   =    172719.9527 Temp     =       301.0530 
PotEng   =   -375043.0102 E_bond   =     20544.0815 E_angle  =     86258.0645 
E_dihed  =     41590.0771 E_impro  =      1734.1513 E_vdwl   =    -15193.6650 
E_coul   =   1667325.4448 E_long   =  -2177301.1645 Press    =        13.7661 
Volume   =   2465083.9382 
Loop time of 13.2774 on 4 procs for 100 steps with 256000 atoms

Performance: 1.301 ns/day, 18.441 hours/ns, 7.532 timesteps/s
99.7% CPU use with 4 MPI tasks x 1 OpenMP threads

MPI task timing breakdown:
Section |  min time  |  avg time  |  max time  |%varavg| %total
---------------------------------------------------------------
Pair    | 8.6549     | 8.675      | 8.6935     |   0.6 | 65.34
Bond    | 0.47984    | 0.48302    | 0.48528    |   0.3 |  3.64
Kspace  | 1.4396     | 1.4594     | 1.4807     |   1.4 | 10.99
Neigh   | 1.0901     | 1.0909     | 1.0922     |   0.1 |  8.22
Comm    | 0.39156    | 0.39383    | 0.39571    |   0.3 |  2.97
Output  | 0.00027786 | 0.00029746 | 0.00034102 |   0.0 |  0.00
Modify  | 1.1291     | 1.1326     | 1.1367     |   0.3 |  8.53
Other   |            | 0.04239    |            |       |  0.32

Nlocal:          64000 ave       64000 max       64000 min
Histogram: 4 0 0 0 0 0 0 0 0 0
Nghost:          71599 ave       71599 max       71599 min
Histogram: 4 0 0 0 0 0 0 0 0 0
Neighs:    2.40561e+07 ave 2.41142e+07 max 2.39979e+07 min
Histogram: 2 0 0 0 0 0 0 0 0 2

Total # of neighbors = 96224259
Ave neighs/atom = 375.87601
Ave special neighs/atom = 7.431875
Neighbor list builds = 11
Dangerous builds = 0
Total wall time: 0:00:14
Intel(R) VTune(TM) Profiler 2022.2.0 collection completed successfully. Use the "aps --report /home/ubuntu/lammps/bench/aps_result_20220601" command to generate textual and HTML reports for the profiling session.
