LAMMPS (7 Jan 2022)
  using 1 OpenMP thread(s) per MPI task
Reading data file ...
  orthogonal box = (-27.5 -38.5 -36.3646) to (27.5 38.5 36.3615)
  2 by 2 by 2 MPI processor grid
  reading atoms ...
  32000 atoms
  reading velocities ...
  32000 velocities
  scanning bonds ...
  4 = max bonds/atom
  scanning angles ...
  8 = max angles/atom
  scanning dihedrals ...
  18 = max dihedrals/atom
  scanning impropers ...
  2 = max impropers/atom
  reading bonds ...
  27723 bonds
  reading angles ...
  40467 angles
  reading dihedrals ...
  56829 dihedrals
  reading impropers ...
  1034 impropers
Finding 1-2 1-3 1-4 neighbors ...
  special bond factors lj:    0        0        0       
  special bond factors coul:  0        0        0       
     4 = max # of 1-2 neighbors
    12 = max # of 1-3 neighbors
    24 = max # of 1-4 neighbors
    26 = max # of special neighbors
  special bonds CPU = 0.005 seconds
  read_data CPU = 0.235 seconds
Replicating atoms ...
  orthogonal box = (-27.5 -38.5 -36.3646) to (137.5 192.5 181.8137)
  2 by 2 by 2 MPI processor grid
  864000 atoms
  748521 bonds
  1092609 angles
  1534383 dihedrals
  27918 impropers
Finding 1-2 1-3 1-4 neighbors ...
  special bond factors lj:    0        0        0       
  special bond factors coul:  0        0        0       
     4 = max # of 1-2 neighbors
    12 = max # of 1-3 neighbors
    24 = max # of 1-4 neighbors
    26 = max # of special neighbors
  special bonds CPU = 0.109 seconds
  replicate CPU = 0.229 seconds
Finding SHAKE clusters ...
   43659 = # of size 2 clusters
   98091 = # of size 3 clusters
   20169 = # of size 4 clusters
  114291 = # of frozen angles
  find clusters CPU = 0.050 seconds
PPPM initialization ...
  using 12-bit tables for long-range coulomb (../kspace.cpp:340)
  G vector (1/distance) = 0.29001067
  grid = 96 128 125
  stencil order = 7
  estimated absolute RMS force accuracy = 0.0038658226
  estimated relative force accuracy = 1.164181e-05
  using single precision MKL FFT
  3d grid and FFT values/proc = 295431 196608
----------------------------------------------------------
Using INTEL Package without Coprocessor.
Compiler: Intel Classic C++ 20.21.5 / Intel(R) C++ g++ 9.3 mode
SIMD compiler directives: Enabled
Precision: mixed
----------------------------------------------------------
  generated 2278 of 2278 mixed pair_coeff terms from arithmetic mixing rule
Neighbor list info ...
  update every 1 steps, delay 5 steps, check yes
  max neighbors/atom: 2000, page size: 100000
  master list distance cutoff = 12
  ghost atom cutoff = 12
  binsize = 6, bins = 28 39 37
  1 neighbor lists, perpetual/occasional/extra = 1 0 0
  (1) pair lj/charmm/coul/long/intel, perpetual
      attributes: half, newton on, intel
      pair build: half/bin/newton/intel
      stencil: half/bin/3d
      bin: intel
Setting up Verlet run ...
  Unit style    : real
  Current step  : 0
  Time step     : 2
Per MPI rank memory allocation (min/avg/max) = 1179 | 1183 | 1187 Mbytes
---------------- Step        0 ----- CPU =      0.0000 (sec) ----------------
TotEng   =   -684695.9929 KinEng   =    579010.4447 Temp     =       299.0277 
PotEng   =  -1263706.4376 E_bond   =     68525.6859 E_angle  =    294877.1223 
E_dihed  =    140718.2350 E_impro  =      5764.8965 E_vdwl   =    -62312.3838 
E_coul   =   6792165.6890 E_long   =  -8503445.6824 Press    =      -152.4326 
Volume   =   8315865.9045 
---------------- Step       50 ----- CPU =     13.0392 (sec) ----------------
TotEng   =   -683988.4033 KinEng   =    580533.8762 Temp     =       299.8145 
PotEng   =  -1264522.2794 E_bond   =     66735.6363 E_angle  =    292593.0274 
E_dihed  =    141466.7760 E_impro  =      6132.8533 E_vdwl   =    -53800.6282 
E_coul   =   6786084.8722 E_long   =  -8503734.8163 Press    =       235.2274 
Volume   =   8316842.2490 
---------------- Step      100 ----- CPU =     25.8285 (sec) ----------------
TotEng   =   -682769.5907 KinEng   =    582926.6236 Temp     =       301.0502 
PotEng   =  -1265696.2143 E_bond   =     69333.6221 E_angle  =    291110.1357 
E_dihed  =    140362.1810 E_impro  =      5853.4896 E_vdwl   =    -51316.6681 
E_coul   =   6782520.5469 E_long   =  -8503559.5215 Press    =        12.5839 
Volume   =   8319585.4819 
Loop time of 25.8285 on 8 procs for 100 steps with 864000 atoms

Performance: 0.669 ns/day, 35.873 hours/ns, 3.872 timesteps/s
99.1% CPU use with 8 MPI tasks x 1 OpenMP threads

MPI task timing breakdown:
Section |  min time  |  avg time  |  max time  |%varavg| %total
---------------------------------------------------------------
Pair    | 14.906     | 15.07      | 15.245     |   3.1 | 58.35
Bond    | 0.89171    | 0.90807    | 0.92627    |   1.2 |  3.52
Kspace  | 3.9714     | 4.1504     | 4.3234     |   6.2 | 16.07
Neigh   | 1.8035     | 1.8051     | 1.8061     |   0.1 |  6.99
Comm    | 0.82935    | 0.8487     | 0.8761     |   2.1 |  3.29
Output  | 0.00040156 | 0.00042232 | 0.0004664  |   0.0 |  0.00
Modify  | 2.8801     | 2.938      | 2.9755     |   2.3 | 11.37
Other   |            | 0.1076     |            |       |  0.42

Nlocal:         108000 ave      108537 max      107589 min
Histogram: 1 2 0 1 2 0 0 0 1 1
Nghost:        96688.2 ave       97124 max       96232 min
Histogram: 1 0 0 3 1 0 0 1 0 2
Neighs:    4.05946e+07 ave 4.09105e+07 max 4.03617e+07 min
Histogram: 1 2 0 1 2 0 0 0 0 2

Total # of neighbors = 3.2475663e+08
Ave neighs/atom = 375.87573
Ave special neighs/atom = 7.431875
Neighbor list builds = 11
Dangerous builds = 0
Total wall time: 0:00:27
Intel(R) VTune(TM) Profiler 2022.2.0 collection completed successfully. Use the "aps --report /home/ubuntu/lammps/bench/aps_result_20220601" command to generate textual and HTML reports for the profiling session.
