LAMMPS (7 Jan 2022)
  using 1 OpenMP thread(s) per MPI task
Reading data file ...
  orthogonal box = (-27.5 -38.5 -36.3646) to (27.5 38.5 36.3615)
  2 by 4 by 2 MPI processor grid
  reading atoms ...
  32000 atoms
  reading velocities ...
  32000 velocities
  scanning bonds ...
  4 = max bonds/atom
  scanning angles ...
  8 = max angles/atom
  scanning dihedrals ...
  18 = max dihedrals/atom
  scanning impropers ...
  2 = max impropers/atom
  reading bonds ...
  27723 bonds
  reading angles ...
  40467 angles
  reading dihedrals ...
  56829 dihedrals
  reading impropers ...
  1034 impropers
Finding 1-2 1-3 1-4 neighbors ...
  special bond factors lj:    0        0        0       
  special bond factors coul:  0        0        0       
     4 = max # of 1-2 neighbors
    12 = max # of 1-3 neighbors
    24 = max # of 1-4 neighbors
    26 = max # of special neighbors
  special bonds CPU = 0.004 seconds
  read_data CPU = 0.239 seconds
Replicating atoms ...
  orthogonal box = (-27.5 -38.5 -36.3646) to (82.5 115.5 109.0876)
  2 by 4 by 2 MPI processor grid
  256000 atoms
  221784 bonds
  323736 angles
  454632 dihedrals
  8272 impropers
Finding 1-2 1-3 1-4 neighbors ...
  special bond factors lj:    0        0        0       
  special bond factors coul:  0        0        0       
     4 = max # of 1-2 neighbors
    12 = max # of 1-3 neighbors
    24 = max # of 1-4 neighbors
    26 = max # of special neighbors
  special bonds CPU = 0.016 seconds
  replicate CPU = 0.047 seconds
Finding SHAKE clusters ...
   12936 = # of size 2 clusters
   29064 = # of size 3 clusters
    5976 = # of size 4 clusters
   33864 = # of frozen angles
  find clusters CPU = 0.008 seconds
PPPM initialization ...
  using 12-bit tables for long-range coulomb (../kspace.cpp:340)
  G vector (1/distance) = 0.25045586
  grid = 45 60 60
  stencil order = 7
  estimated absolute RMS force accuracy = 0.032785255
  estimated relative force accuracy = 9.8731821e-05
  using single precision MKL FFT
  3d grid and FFT values/proc = 24420 10800
----------------------------------------------------------
Using INTEL Package without Coprocessor.
Compiler: Intel Classic C++ 20.21.5 / Intel(R) C++ g++ 9.3 mode
SIMD compiler directives: Enabled
Precision: mixed
----------------------------------------------------------
  generated 2278 of 2278 mixed pair_coeff terms from arithmetic mixing rule
Neighbor list info ...
  update every 1 steps, delay 5 steps, check yes
  max neighbors/atom: 2000, page size: 100000
  master list distance cutoff = 12
  ghost atom cutoff = 12
  binsize = 6, bins = 19 26 25
  1 neighbor lists, perpetual/occasional/extra = 1 0 0
  (1) pair lj/charmm/coul/long/intel, perpetual
      attributes: half, newton on, intel
      pair build: half/bin/newton/intel
      stencil: half/bin/3d
      bin: intel
Setting up Verlet run ...
  Unit style    : real
  Current step  : 0
  Time step     : 2
Per MPI rank memory allocation (min/avg/max) = 211.1 | 212 | 212.8 Mbytes
---------------- Step        0 ----- CPU =      0.0000 (sec) ----------------
TotEng   =   -202864.5380 KinEng   =    171558.6503 Temp     =       299.0288 
PotEng   =   -374423.1883 E_bond   =     20303.9370 E_angle  =     87370.9630 
E_dihed  =     41694.2900 E_impro  =      1708.1116 E_vdwl   =    -18462.9090 
E_coul   =   1670250.1020 E_long   =  -2177287.6828 Press    =      -148.4154 
Volume   =   2463960.2680 
---------------- Step       50 ----- CPU =      2.2981 (sec) ----------------
TotEng   =   -202648.9053 KinEng   =    172007.9732 Temp     =       299.8120 
PotEng   =   -374656.8784 E_bond   =     19774.0899 E_angle  =     86693.3964 
E_dihed  =     41917.3525 E_impro  =      1816.9821 E_vdwl   =    -15944.9423 
E_coul   =   1668429.0188 E_long   =  -2177342.7759 Press    =       238.9868 
Volume   =   2464255.7505 
---------------- Step      100 ----- CPU =      4.2683 (sec) ----------------
TotEng   =   -202321.9599 KinEng   =    172720.0216 Temp     =       301.0531 
PotEng   =   -375041.9815 E_bond   =     20544.0534 E_angle  =     86258.0452 
E_dihed  =     41590.0880 E_impro  =      1734.0851 E_vdwl   =    -15193.5767 
E_coul   =   1667326.4931 E_long   =  -2177301.1696 Press    =        13.7620 
Volume   =   2465083.9255 
Loop time of 4.26835 on 16 procs for 100 steps with 256000 atoms

Performance: 4.048 ns/day, 5.928 hours/ns, 23.428 timesteps/s
98.8% CPU use with 16 MPI tasks x 1 OpenMP threads

MPI task timing breakdown:
Section |  min time  |  avg time  |  max time  |%varavg| %total
---------------------------------------------------------------
Pair    | 2.5185     | 2.6224     | 2.6961     |   3.5 | 61.44
Bond    | 0.1477     | 0.15574    | 0.16398    |   1.3 |  3.65
Kspace  | 0.47091    | 0.55059    | 0.65946    |   8.2 | 12.90
Neigh   | 0.33254    | 0.3335     | 0.33399    |   0.1 |  7.81
Comm    | 0.17995    | 0.18389    | 0.1915     |   0.9 |  4.31
Output  | 0.00013613 | 0.0001408  | 0.00019958 |   0.0 |  0.00
Modify  | 0.37929    | 0.39671    | 0.40547    |   1.5 |  9.29
Other   |            | 0.02542    |            |       |  0.60

Nlocal:          16000 ave       16103 max       15897 min
Histogram: 8 0 0 0 0 0 0 0 0 8
Nghost:        33478.5 ave       33489 max       33468 min
Histogram: 8 0 0 0 0 0 0 0 0 8
Neighs:    6.01402e+06 ave 6.09947e+06 max 5.92937e+06 min
Histogram: 4 4 0 0 0 0 0 0 4 4

Total # of neighbors = 96224283
Ave neighs/atom = 375.87611
Ave special neighs/atom = 7.431875
Neighbor list builds = 11
Dangerous builds = 0
Total wall time: 0:00:04
Intel(R) VTune(TM) Profiler 2022.2.0 collection completed successfully. Use the "aps --report /home/ubuntu/lammps/bench/aps_result_20220601" command to generate textual and HTML reports for the profiling session.
