LAMMPS (7 Jan 2022)
  using 1 OpenMP thread(s) per MPI task
Reading data file ...
  orthogonal box = (-27.5 -38.5 -36.3646) to (27.5 38.5 36.3615)
  1 by 2 by 2 MPI processor grid
  reading atoms ...
  32000 atoms
  reading velocities ...
  32000 velocities
  scanning bonds ...
  4 = max bonds/atom
  scanning angles ...
  8 = max angles/atom
  scanning dihedrals ...
  18 = max dihedrals/atom
  scanning impropers ...
  2 = max impropers/atom
  reading bonds ...
  27723 bonds
  reading angles ...
  40467 angles
  reading dihedrals ...
  56829 dihedrals
  reading impropers ...
  1034 impropers
Finding 1-2 1-3 1-4 neighbors ...
  special bond factors lj:    0        0        0       
  special bond factors coul:  0        0        0       
     4 = max # of 1-2 neighbors
    12 = max # of 1-3 neighbors
    24 = max # of 1-4 neighbors
    26 = max # of special neighbors
  special bonds CPU = 0.022 seconds
  read_data CPU = 0.437 seconds
Replicating atoms ...
  orthogonal box = (-27.5 -38.5 -36.3646) to (137.5 192.5 181.8137)
  1 by 2 by 2 MPI processor grid
  864000 atoms
  748521 bonds
  1092609 angles
  1534383 dihedrals
  27918 impropers
Finding 1-2 1-3 1-4 neighbors ...
  special bond factors lj:    0        0        0       
  special bond factors coul:  0        0        0       
     4 = max # of 1-2 neighbors
    12 = max # of 1-3 neighbors
    24 = max # of 1-4 neighbors
    26 = max # of special neighbors
  special bonds CPU = 0.246 seconds
  replicate CPU = 0.429 seconds
Finding SHAKE clusters ...
   43659 = # of size 2 clusters
   98091 = # of size 3 clusters
   20169 = # of size 4 clusters
  114291 = # of frozen angles
  find clusters CPU = 0.135 seconds
PPPM initialization ...
  using 12-bit tables for long-range coulomb (../kspace.cpp:340)
  G vector (1/distance) = 0.25235202
  grid = 72 90 90
  stencil order = 7
  estimated absolute RMS force accuracy = 0.029803316
  estimated relative force accuracy = 8.9751802e-05
  using single precision MKL FFT
  3d grid and FFT values/proc = 213616 149040
----------------------------------------------------------
Using INTEL Package without Coprocessor.
Compiler: Intel Classic C++ 20.21.5 / Intel(R) C++ g++ 9.3 mode
SIMD compiler directives: Enabled
Precision: mixed
----------------------------------------------------------
  generated 2278 of 2278 mixed pair_coeff terms from arithmetic mixing rule
Neighbor list info ...
  update every 1 steps, delay 5 steps, check yes
  max neighbors/atom: 2000, page size: 100000
  master list distance cutoff = 12
  ghost atom cutoff = 12
  binsize = 6, bins = 28 39 37
  1 neighbor lists, perpetual/occasional/extra = 1 0 0
  (1) pair lj/charmm/coul/long/intel, perpetual
      attributes: half, newton on, intel
      pair build: half/bin/newton/intel
      stencil: half/bin/3d
      bin: intel
Setting up Verlet run ...
  Unit style    : real
  Current step  : 0
  Time step     : 2
Per MPI rank memory allocation (min/avg/max) = 2280 | 2285 | 2293 Mbytes
---------------- Step        0 ----- CPU =      0.0000 (sec) ----------------
TotEng   =   -684670.9758 KinEng   =    579010.4447 Temp     =       299.0277 
PotEng   =  -1263681.4205 E_bond   =     68525.6859 E_angle  =    294877.1223 
E_dihed  =    140718.2350 E_impro  =      5764.8965 E_vdwl   =    -62312.3838 
E_coul   =   5692538.4980 E_long   =  -7403793.4743 Press    =      -148.6879 
Volume   =   8315865.9045 
---------------- Step       50 ----- CPU =     44.3027 (sec) ----------------
TotEng   =   -683945.7637 KinEng   =    580526.0221 Temp     =       299.8104 
PotEng   =  -1264471.7858 E_bond   =     66737.4492 E_angle  =    292591.3729 
E_dihed  =    141470.6533 E_impro  =      6132.4273 E_vdwl   =    -53811.2373 
E_coul   =   5686392.7197 E_long   =  -7403985.1709 Press    =       238.9158 
Volume   =   8316862.5492 
---------------- Step      100 ----- CPU =     89.5167 (sec) ----------------
TotEng   =   -682828.0319 KinEng   =    582915.3837 Temp     =       301.0444 
PotEng   =  -1265743.4156 E_bond   =     69335.3181 E_angle  =    291121.1096 
E_dihed  =    140366.2069 E_impro  =      5852.7277 E_vdwl   =    -51271.2112 
E_coul   =   5682697.2598 E_long   =  -7403844.8266 Press    =        14.5770 
Volume   =   8319656.0545 
Loop time of 89.5168 on 4 procs for 100 steps with 864000 atoms

Performance: 0.193 ns/day, 124.329 hours/ns, 1.117 timesteps/s
78.3% CPU use with 4 MPI tasks x 1 OpenMP threads

MPI task timing breakdown:
Section |  min time  |  avg time  |  max time  |%varavg| %total
---------------------------------------------------------------
Pair    | 29.399     | 37.036     | 59.11      | 209.5 | 41.37
Bond    | 1.7551     | 2.2148     | 3.5518     |  51.9 |  2.47
Kspace  | 9.491      | 32.971     | 41.091     | 236.1 | 36.83
Neigh   | 7.0784     | 7.1444     | 7.1788     |   1.5 |  7.98
Comm    | 2.8419     | 3.2829     | 3.481      |  14.2 |  3.67
Output  | 0.00078203 | 0.00081263 | 0.00085606 |   0.0 |  0.00
Modify  | 5.7584     | 6.1485     | 7.1799     |  24.0 |  6.87
Other   |            | 0.7186     |            |       |  0.80

Nlocal:         216000 ave      216966 max      215355 min
Histogram: 1 0 1 1 0 0 0 0 0 1
Nghost:         147373 ave      147738 max      146825 min
Histogram: 1 0 0 0 0 1 0 0 1 1
Neighs:    8.11896e+07 ave 8.18002e+07 max 8.07829e+07 min
Histogram: 1 0 1 1 0 0 0 0 0 1

Total # of neighbors = 3.2475853e+08
Ave neighs/atom = 375.87793
Ave special neighs/atom = 7.431875
Neighbor list builds = 11
Dangerous builds = 0
Total wall time: 0:01:32
Intel(R) VTune(TM) Profiler 2022.2.0 collection completed successfully. Use the "aps --report /home/ubuntu/lammps/bench/aps_result_20220526" command to generate textual and HTML reports for the profiling session.
