LAMMPS (7 Jan 2022)
  using 1 OpenMP thread(s) per MPI task
Reading data file ...
  orthogonal box = (-27.5 -38.5 -36.3646) to (27.5 38.5 36.3615)
  2 by 2 by 2 MPI processor grid
  reading atoms ...
  32000 atoms
  reading velocities ...
  32000 velocities
  scanning bonds ...
  4 = max bonds/atom
  scanning angles ...
  8 = max angles/atom
  scanning dihedrals ...
  18 = max dihedrals/atom
  scanning impropers ...
  2 = max impropers/atom
  reading bonds ...
  27723 bonds
  reading angles ...
  40467 angles
  reading dihedrals ...
  56829 dihedrals
  reading impropers ...
  1034 impropers
Finding 1-2 1-3 1-4 neighbors ...
  special bond factors lj:    0        0        0       
  special bond factors coul:  0        0        0       
     4 = max # of 1-2 neighbors
    12 = max # of 1-3 neighbors
    24 = max # of 1-4 neighbors
    26 = max # of special neighbors
  special bonds CPU = 0.004 seconds
  read_data CPU = 0.234 seconds
Finding SHAKE clusters ...
    1617 = # of size 2 clusters
    3633 = # of size 3 clusters
     747 = # of size 4 clusters
    4233 = # of frozen angles
  find clusters CPU = 0.002 seconds
PPPM initialization ...
  using 12-bit tables for long-range coulomb (../kspace.cpp:340)
  G vector (1/distance) = 0.25235202
  grid = 24 30 30
  stencil order = 7
  estimated absolute RMS force accuracy = 0.029803316
  estimated relative force accuracy = 8.9751802e-05
  using single precision MKL FFT
  3d grid and FFT values/proc = 9196 2880
----------------------------------------------------------
Using INTEL Package without Coprocessor.
Compiler: Intel Classic C++ 20.21.5 / Intel(R) C++ g++ 9.3 mode
SIMD compiler directives: Enabled
Precision: mixed
----------------------------------------------------------
  generated 2278 of 2278 mixed pair_coeff terms from arithmetic mixing rule
Neighbor list info ...
  update every 1 steps, delay 5 steps, check yes
  max neighbors/atom: 2000, page size: 100000
  master list distance cutoff = 12
  ghost atom cutoff = 12
  binsize = 6, bins = 10 13 13
  1 neighbor lists, perpetual/occasional/extra = 1 0 0
  (1) pair lj/charmm/coul/long/intel, perpetual
      attributes: half, newton on, intel
      pair build: half/bin/newton/intel
      stencil: half/bin/3d
      bin: intel
Setting up Verlet run ...
  Unit style    : real
  Current step  : 0
  Time step     : 2
Per MPI rank memory allocation (min/avg/max) = 70.67 | 71.31 | 71.94 Mbytes
---------------- Step        0 ----- CPU =      0.0000 (sec) ----------------
TotEng   =    -25358.1687 KinEng   =     21444.8313 Temp     =       299.0397 
PotEng   =    -46803.0000 E_bond   =      2537.9949 E_angle  =     10921.3721 
E_dihed  =      5211.7865 E_impro  =       213.5135 E_vdwl   =     -2307.8639 
E_coul   =    210834.7641 E_long   =   -274214.5673 Press    =      -148.6999 
Volume   =    307995.0335 
---------------- Step       50 ----- CPU =      0.5827 (sec) ----------------
TotEng   =    -25332.0982 KinEng   =     21500.5460 Temp     =       299.8166 
PotEng   =    -46832.6442 E_bond   =      2471.7206 E_angle  =     10836.5698 
E_dihed  =      5239.6344 E_impro  =       227.1184 E_vdwl   =     -1993.0562 
E_coul   =    210607.0420 E_long   =   -274221.6733 Press    =       238.8258 
Volume   =    308031.9403 
---------------- Step      100 ----- CPU =      1.1696 (sec) ----------------
TotEng   =    -25292.3758 KinEng   =     21588.2323 Temp     =       301.0393 
PotEng   =    -46880.6080 E_bond   =      2567.8590 E_angle  =     10781.8520 
E_dihed  =      5198.6620 E_impro  =       216.7554 E_vdwl   =     -1899.0492 
E_coul   =    210469.7899 E_long   =   -274216.4772 Press    =        14.3103 
Volume   =    308135.3258 
---------------- Step      150 ----- CPU =      1.7379 (sec) ----------------
TotEng   =    -25260.1690 KinEng   =     21534.2145 Temp     =       300.2861 
PotEng   =    -46794.3835 E_bond   =      2556.6731 E_angle  =     10854.0645 
E_dihed  =      5264.4339 E_impro  =       202.9922 E_vdwl   =     -2074.2908 
E_coul   =    210608.1259 E_long   =   -274206.3824 Press    =       243.9738 
Volume   =    308518.6173 
---------------- Step      200 ----- CPU =      2.2654 (sec) ----------------
TotEng   =    -25078.6152 KinEng   =     21540.6362 Temp     =       300.3756 
PotEng   =    -46619.2514 E_bond   =      2489.3695 E_angle  =     11075.6665 
E_dihed  =      5221.5654 E_impro  =       232.4416 E_vdwl   =     -2148.4266 
E_coul   =    210715.5206 E_long   =   -274205.3886 Press    =        41.1038 
Volume   =    308999.4263 
---------------- Step      250 ----- CPU =      2.7884 (sec) ----------------
TotEng   =    -24960.3430 KinEng   =     21534.1665 Temp     =       300.2854 
PotEng   =    -46494.5095 E_bond   =      2541.5557 E_angle  =     11095.5035 
E_dihed  =      5245.7024 E_impro  =       213.5816 E_vdwl   =     -2163.4318 
E_coul   =    210795.6167 E_long   =   -274223.0375 Press    =      -154.5433 
Volume   =    309392.6939 
---------------- Step      300 ----- CPU =      3.2168 (sec) ----------------
TotEng   =    -25026.9795 KinEng   =     21525.5355 Temp     =       300.1651 
PotEng   =    -46552.5150 E_bond   =      2560.5949 E_angle  =     10925.9793 
E_dihed  =      5220.8101 E_impro  =       224.2033 E_vdwl   =     -2167.9557 
E_coul   =    210892.5669 E_long   =   -274208.7137 Press    =      -381.7541 
Volume   =    309705.6908 
---------------- Step      350 ----- CPU =      3.6469 (sec) ----------------
TotEng   =    -25143.3167 KinEng   =     21589.0881 Temp     =       301.0513 
PotEng   =    -46732.4047 E_bond   =      2580.6329 E_angle  =     10957.9919 
E_dihed  =      5250.9307 E_impro  =       209.6804 E_vdwl   =     -2022.4875 
E_coul   =    210514.9372 E_long   =   -274224.0903 Press    =      -314.5409 
Volume   =    309848.8735 
---------------- Step      400 ----- CPU =      4.0829 (sec) ----------------
TotEng   =    -25289.2251 KinEng   =     21387.7216 Temp     =       298.2433 
PotEng   =    -46676.9467 E_bond   =      2540.6249 E_angle  =     10921.7150 
E_dihed  =      5216.7279 E_impro  =       216.4454 E_vdwl   =     -2013.4202 
E_coul   =    210654.7203 E_long   =   -274213.7601 Press    =       248.0452 
Volume   =    309903.9278 
---------------- Step      450 ----- CPU =      4.5110 (sec) ----------------
TotEng   =    -25335.3136 KinEng   =     21469.7624 Temp     =       299.3873 
PotEng   =    -46805.0760 E_bond   =      2495.4477 E_angle  =     10911.5914 
E_dihed  =      5276.5639 E_impro  =       222.4567 E_vdwl   =     -2108.6041 
E_coul   =    210605.8499 E_long   =   -274208.3815 Press    =       194.2733 
Volume   =    310013.2678 
---------------- Step      500 ----- CPU =      4.9463 (sec) ----------------
TotEng   =    -25110.4931 KinEng   =     21518.7082 Temp     =       300.0699 
PotEng   =    -46629.2013 E_bond   =      2587.4927 E_angle  =     10925.0015 
E_dihed  =      5235.8527 E_impro  =       219.7850 E_vdwl   =     -2104.1296 
E_coul   =    210712.4536 E_long   =   -274205.6573 Press    =      -184.8146 
Volume   =    310081.6734 
---------------- Step      550 ----- CPU =      5.3756 (sec) ----------------
TotEng   =    -24860.0348 KinEng   =     21563.6664 Temp     =       300.6968 
PotEng   =    -46423.7013 E_bond   =      2551.5641 E_angle  =     11009.9175 
E_dihed  =      5209.8490 E_impro  =       235.0903 E_vdwl   =     -2141.8515 
E_coul   =    210926.8362 E_long   =   -274215.1068 Press    =       306.3218 
Volume   =    310086.7077 
---------------- Step      600 ----- CPU =      5.8147 (sec) ----------------
TotEng   =    -24737.3930 KinEng   =     21706.7465 Temp     =       302.6920 
PotEng   =    -46444.1396 E_bond   =      2524.0270 E_angle  =     10984.8422 
E_dihed  =      5289.0606 E_impro  =       220.5082 E_vdwl   =     -2308.4885 
E_coul   =    211065.5286 E_long   =   -274219.6177 Press    =       143.1939 
Volume   =    310161.7979 
---------------- Step      650 ----- CPU =      6.2559 (sec) ----------------
TotEng   =    -24855.3388 KinEng   =     21643.2029 Temp     =       301.8059 
PotEng   =    -46498.5418 E_bond   =      2513.8379 E_angle  =     10931.3865 
E_dihed  =      5265.0091 E_impro  =       217.5535 E_vdwl   =     -2232.8430 
E_coul   =    211019.3811 E_long   =   -274212.8669 Press    =      -186.0637 
Volume   =    310225.3266 
---------------- Step      700 ----- CPU =      6.6865 (sec) ----------------
TotEng   =    -25022.8167 KinEng   =     21564.0982 Temp     =       300.7028 
PotEng   =    -46586.9149 E_bond   =      2507.6775 E_angle  =     11009.1993 
E_dihed  =      5253.4264 E_impro  =       203.4543 E_vdwl   =     -2134.3866 
E_coul   =    210786.7091 E_long   =   -274212.9950 Press    =       370.3063 
Volume   =    310235.6627 
---------------- Step      750 ----- CPU =      7.1174 (sec) ----------------
TotEng   =    -25168.1807 KinEng   =     21412.6634 Temp     =       298.5911 
PotEng   =    -46580.8441 E_bond   =      2561.1655 E_angle  =     11023.8134 
E_dihed  =      5269.7924 E_impro  =       207.2472 E_vdwl   =     -2142.5555 
E_coul   =    210727.5058 E_long   =   -274227.8129 Press    =        37.7892 
Volume   =    310214.8374 
---------------- Step      800 ----- CPU =      7.5590 (sec) ----------------
TotEng   =    -25219.5807 KinEng   =     21397.6938 Temp     =       298.3824 
PotEng   =    -46617.2745 E_bond   =      2516.4281 E_angle  =     11032.5923 
E_dihed  =      5238.6023 E_impro  =       213.5334 E_vdwl   =     -2139.8265 
E_coul   =    210732.3205 E_long   =   -274210.9245 Press    =      -271.0237 
Volume   =    310315.6375 
---------------- Step      850 ----- CPU =      7.9929 (sec) ----------------
TotEng   =    -25066.6001 KinEng   =     21516.3664 Temp     =       300.0372 
PotEng   =    -46582.9665 E_bond   =      2535.2609 E_angle  =     11012.6949 
E_dihed  =      5262.8130 E_impro  =       217.1746 E_vdwl   =     -2104.4904 
E_coul   =    210715.8547 E_long   =   -274222.2743 Press    =       161.0246 
Volume   =    310202.4485 
---------------- Step      900 ----- CPU =      8.4350 (sec) ----------------
TotEng   =    -24928.0966 KinEng   =     21594.8166 Temp     =       301.1312 
PotEng   =    -46522.9132 E_bond   =      2521.2131 E_angle  =     10961.2133 
E_dihed  =      5315.5508 E_impro  =       224.6933 E_vdwl   =     -1891.5873 
E_coul   =    210543.0064 E_long   =   -274197.0026 Press    =       331.3810 
Volume   =    310027.1718 
---------------- Step      950 ----- CPU =      8.8697 (sec) ----------------
TotEng   =    -24940.7558 KinEng   =     21490.2521 Temp     =       299.6730 
PotEng   =    -46431.0079 E_bond   =      2582.5796 E_angle  =     11038.0585 
E_dihed  =      5277.9026 E_impro  =       233.2705 E_vdwl   =     -2195.9572 
E_coul   =    210845.2521 E_long   =   -274212.1140 Press    =      -476.0972 
Volume   =    310086.6768 
---------------- Step     1000 ----- CPU =      9.3113 (sec) ----------------
TotEng   =    -24998.6502 KinEng   =     21508.6725 Temp     =       299.9299 
PotEng   =    -46507.3227 E_bond   =      2567.7432 E_angle  =     10983.2122 
E_dihed  =      5236.0437 E_impro  =       204.9908 E_vdwl   =     -2219.8789 
E_coul   =    210940.0928 E_long   =   -274219.5265 Press    =      -313.0936 
Volume   =    310146.0384 
---------------- Step     1050 ----- CPU =      9.7457 (sec) ----------------
TotEng   =    -25008.7901 KinEng   =     21767.3646 Temp     =       303.5373 
PotEng   =    -46776.1547 E_bond   =      2622.5410 E_angle  =     11065.8130 
E_dihed  =      5298.3421 E_impro  =       214.4823 E_vdwl   =     -2341.4646 
E_coul   =    210576.0643 E_long   =   -274211.9327 Press    =      -506.3394 
Volume   =    310112.3971 
---------------- Step     1100 ----- CPU =     10.1862 (sec) ----------------
TotEng   =    -25096.5565 KinEng   =     21649.8535 Temp     =       301.8986 
PotEng   =    -46746.4100 E_bond   =      2570.9590 E_angle  =     10887.6343 
E_dihed  =      5267.0330 E_impro  =       224.0281 E_vdwl   =     -2141.5974 
E_coul   =    210673.7831 E_long   =   -274228.2502 Press    =      -363.7649 
Volume   =    309826.0412 
---------------- Step     1150 ----- CPU =     10.6191 (sec) ----------------
TotEng   =    -25154.5292 KinEng   =     21477.4494 Temp     =       299.4945 
PotEng   =    -46631.9787 E_bond   =      2547.2723 E_angle  =     11076.0629 
E_dihed  =      5259.9161 E_impro  =       215.9197 E_vdwl   =     -2133.3016 
E_coul   =    210627.0927 E_long   =   -274224.9408 Press    =       303.1775 
Volume   =    309401.0518 
---------------- Step     1200 ----- CPU =     11.0597 (sec) ----------------
TotEng   =    -25163.0813 KinEng   =     21418.3324 Temp     =       298.6702 
PotEng   =    -46581.4138 E_bond   =      2557.7963 E_angle  =     11042.0461 
E_dihed  =      5253.1130 E_impro  =       230.3011 E_vdwl   =     -2435.6791 
E_coul   =    210990.1508 E_long   =   -274219.1420 Press    =       -67.8038 
Volume   =    308922.4263 
---------------- Step     1250 ----- CPU =     11.4919 (sec) ----------------
TotEng   =    -25218.3340 KinEng   =     21566.5138 Temp     =       300.7365 
PotEng   =    -46784.8479 E_bond   =      2574.6919 E_angle  =     10972.9026 
E_dihed  =      5270.7932 E_impro  =       207.1425 E_vdwl   =     -2083.6103 
E_coul   =    210480.5085 E_long   =   -274207.2763 Press    =       -49.5710 
Volume   =    308624.5011 
---------------- Step     1300 ----- CPU =     11.9228 (sec) ----------------
TotEng   =    -25311.0679 KinEng   =     21468.9623 Temp     =       299.3762 
PotEng   =    -46780.0303 E_bond   =      2549.3901 E_angle  =     10927.9406 
E_dihed  =      5304.8197 E_impro  =       212.1158 E_vdwl   =     -2237.4866 
E_coul   =    210683.8490 E_long   =   -274220.6589 Press    =      -341.2404 
Volume   =    308517.6003 
---------------- Step     1350 ----- CPU =     12.3609 (sec) ----------------
TotEng   =    -25309.7848 KinEng   =     21382.3913 Temp     =       298.1690 
PotEng   =    -46692.1762 E_bond   =      2518.2495 E_angle  =     10933.1936 
E_dihed  =      5278.8826 E_impro  =       221.3753 E_vdwl   =     -1916.6490 
E_coul   =    210484.2507 E_long   =   -274211.4789 Press    =       204.4425 
Volume   =    308527.8237 
---------------- Step     1400 ----- CPU =     12.7924 (sec) ----------------
TotEng   =    -25211.4107 KinEng   =     21499.3931 Temp     =       299.8005 
PotEng   =    -46710.8038 E_bond   =      2548.7795 E_angle  =     11005.9313 
E_dihed  =      5246.9543 E_impro  =       226.2867 E_vdwl   =     -2125.9298 
E_coul   =    210597.3639 E_long   =   -274210.1898 Press    =         6.3841 
Volume   =    308659.0011 
---------------- Step     1450 ----- CPU =     13.2235 (sec) ----------------
TotEng   =    -25072.7844 KinEng   =     21462.7166 Temp     =       299.2891 
PotEng   =    -46535.5011 E_bond   =      2586.6987 E_angle  =     11096.7950 
E_dihed  =      5269.5117 E_impro  =       232.8421 E_vdwl   =     -2264.6955 
E_coul   =    210755.8716 E_long   =   -274212.5246 Press    =      -269.9898 
Volume   =    308759.7429 
---------------- Step     1500 ----- CPU =     13.6634 (sec) ----------------
TotEng   =    -25035.8705 KinEng   =     21543.3817 Temp     =       300.4139 
PotEng   =    -46579.2522 E_bond   =      2551.1309 E_angle  =     10979.7835 
E_dihed  =      5272.5942 E_impro  =       214.2048 E_vdwl   =     -2374.8195 
E_coul   =    210997.5072 E_long   =   -274219.6532 Press    =      -252.6364 
Volume   =    308857.4384 
---------------- Step     1550 ----- CPU =     14.0964 (sec) ----------------
TotEng   =    -25021.0062 KinEng   =     21490.6511 Temp     =       299.6786 
PotEng   =    -46511.6573 E_bond   =      2555.0917 E_angle  =     11056.4300 
E_dihed  =      5365.7053 E_impro  =       235.7373 E_vdwl   =     -2247.5313 
E_coul   =    210747.3337 E_long   =   -274224.4240 Press    =      -218.1622 
Volume   =    308816.4481 
---------------- Step     1600 ----- CPU =     14.5362 (sec) ----------------
TotEng   =    -25005.1477 KinEng   =     21605.8258 Temp     =       301.2847 
PotEng   =    -46610.9735 E_bond   =      2624.7619 E_angle  =     11056.9991 
E_dihed  =      5218.8592 E_impro  =       218.5058 E_vdwl   =     -1998.9187 
E_coul   =    210483.9257 E_long   =   -274215.1065 Press    =       272.8365 
Volume   =    308732.2834 
---------------- Step     1650 ----- CPU =     14.9691 (sec) ----------------
TotEng   =    -25108.6146 KinEng   =     21589.8221 Temp     =       301.0615 
PotEng   =    -46698.4366 E_bond   =      2540.5994 E_angle  =     10881.7527 
E_dihed  =      5356.3293 E_impro  =       212.1150 E_vdwl   =     -2012.4266 
E_coul   =    210543.2221 E_long   =   -274220.0285 Press    =       -96.5020 
Volume   =    308735.1753 
---------------- Step     1700 ----- CPU =     15.4017 (sec) ----------------
TotEng   =    -25225.1604 KinEng   =     21506.2307 Temp     =       299.8959 
PotEng   =    -46731.3911 E_bond   =      2475.6275 E_angle  =     10997.9207 
E_dihed  =      5264.7866 E_impro  =       226.0953 E_vdwl   =     -2143.3293 
E_coul   =    210653.1542 E_long   =   -274205.6461 Press    =       285.3881 
Volume   =    308842.4173 
---------------- Step     1750 ----- CPU =     15.8411 (sec) ----------------
TotEng   =    -25268.4647 KinEng   =     21555.0703 Temp     =       300.5769 
PotEng   =    -46823.5350 E_bond   =      2562.1103 E_angle  =     11052.8856 
E_dihed  =      5223.4164 E_impro  =       224.3946 E_vdwl   =     -2346.7314 
E_coul   =    210678.2751 E_long   =   -274217.8855 Press    =         1.9300 
Volume   =    309023.5863 
---------------- Step     1800 ----- CPU =     16.2707 (sec) ----------------
TotEng   =    -25137.0928 KinEng   =     21444.3385 Temp     =       299.0328 
PotEng   =    -46581.4313 E_bond   =      2576.2482 E_angle  =     10904.1167 
E_dihed  =      5234.3900 E_impro  =       241.0880 E_vdwl   =     -2049.7526 
E_coul   =    210724.3555 E_long   =   -274211.8770 Press    =      -356.3824 
Volume   =    309154.3599 
---------------- Step     1850 ----- CPU =     16.7081 (sec) ----------------
TotEng   =    -24891.8317 KinEng   =     21584.1153 Temp     =       300.9819 
PotEng   =    -46475.9470 E_bond   =      2562.3180 E_angle  =     10921.4793 
E_dihed  =      5312.2072 E_impro  =       208.8950 E_vdwl   =     -2160.6042 
E_coul   =    210898.1800 E_long   =   -274218.4222 Press    =        -7.3526 
Volume   =    309180.8161 
---------------- Step     1900 ----- CPU =     17.1377 (sec) ----------------
TotEng   =    -24730.6015 KinEng   =     21584.2100 Temp     =       300.9833 
PotEng   =    -46314.8115 E_bond   =      2639.4959 E_angle  =     11072.8870 
E_dihed  =      5275.5662 E_impro  =       231.1766 E_vdwl   =     -2098.0617 
E_coul   =    210775.3456 E_long   =   -274211.2211 Press    =      -293.6491 
Volume   =    309103.7495 
---------------- Step     1950 ----- CPU =     17.5672 (sec) ----------------
TotEng   =    -24853.9296 KinEng   =     21567.5776 Temp     =       300.7513 
PotEng   =    -46421.5072 E_bond   =      2602.1173 E_angle  =     11077.9195 
E_dihed  =      5258.4745 E_impro  =       226.4629 E_vdwl   =     -2214.2855 
E_coul   =    210844.8133 E_long   =   -274217.0093 Press    =       156.7215 
Volume   =    309016.8299 
---------------- Step     2000 ----- CPU =     18.0058 (sec) ----------------
TotEng   =    -25176.0548 KinEng   =     21363.4924 Temp     =       297.9054 
PotEng   =    -46539.5472 E_bond   =      2565.8435 E_angle  =     10913.4895 
E_dihed  =      5296.9853 E_impro  =       219.0876 E_vdwl   =     -2110.1669 
E_coul   =    210773.3213 E_long   =   -274198.1075 Press    =       -26.9534 
Volume   =    309027.3580 
---------------- Step     2050 ----- CPU =     18.4383 (sec) ----------------
TotEng   =    -25275.4542 KinEng   =     21475.6310 Temp     =       299.4692 
PotEng   =    -46751.0852 E_bond   =      2538.0562 E_angle  =     10962.4077 
E_dihed  =      5304.8679 E_impro  =       216.9557 E_vdwl   =     -1943.5659 
E_coul   =    210369.8574 E_long   =   -274199.6643 Press    =      -194.2420 
Volume   =    309099.5403 
---------------- Step     2100 ----- CPU =     18.8800 (sec) ----------------
TotEng   =    -25308.3532 KinEng   =     21406.0612 Temp     =       298.4990 
PotEng   =    -46714.4144 E_bond   =      2540.9400 E_angle  =     11055.7341 
E_dihed  =      5250.8666 E_impro  =       211.2388 E_vdwl   =     -1980.6359 
E_coul   =    210411.5891 E_long   =   -274204.1472 Press    =       155.8987 
Volume   =    309213.7485 
---------------- Step     2150 ----- CPU =     19.3140 (sec) ----------------
TotEng   =    -25228.5483 KinEng   =     21557.1752 Temp     =       300.6063 
PotEng   =    -46785.7235 E_bond   =      2558.8225 E_angle  =     10971.6224 
E_dihed  =      5267.5044 E_impro  =       238.1924 E_vdwl   =     -2119.9120 
E_coul   =    210499.8217 E_long   =   -274201.7749 Press    =        26.7813 
Volume   =    309352.4316 
---------------- Step     2200 ----- CPU =     19.7504 (sec) ----------------
TotEng   =    -25070.9437 KinEng   =     21496.0423 Temp     =       299.7538 
PotEng   =    -46566.9859 E_bond   =      2558.6299 E_angle  =     10991.4041 
E_dihed  =      5315.7940 E_impro  =       212.4097 E_vdwl   =     -2361.2074 
E_coul   =    210922.9721 E_long   =   -274206.9884 Press    =      -100.3879 
Volume   =    309579.6870 
---------------- Step     2250 ----- CPU =     20.1863 (sec) ----------------
TotEng   =    -24957.4762 KinEng   =     21472.2033 Temp     =       299.4214 
PotEng   =    -46429.6795 E_bond   =      2593.0240 E_angle  =     10977.1642 
E_dihed  =      5284.3868 E_impro  =       221.7235 E_vdwl   =     -2009.0806 
E_coul   =    210726.1720 E_long   =   -274223.0694 Press    =       162.7467 
Volume   =    309739.7446 
---------------- Step     2300 ----- CPU =     20.6306 (sec) ----------------
TotEng   =    -24911.0832 KinEng   =     21395.3435 Temp     =       298.3496 
PotEng   =    -46306.4267 E_bond   =      2589.4620 E_angle  =     11086.4026 
E_dihed  =      5343.3443 E_impro  =       215.0708 E_vdwl   =     -2057.9908 
E_coul   =    210729.4719 E_long   =   -274212.1876 Press    =        18.9540 
Volume   =    309854.6505 
---------------- Step     2350 ----- CPU =     21.0647 (sec) ----------------
TotEng   =    -24949.4207 KinEng   =     21631.5245 Temp     =       301.6430 
PotEng   =    -46580.9453 E_bond   =      2554.3123 E_angle  =     11005.8998 
E_dihed  =      5309.9748 E_impro  =       218.6041 E_vdwl   =     -2093.9013 
E_coul   =    210628.9616 E_long   =   -274204.7966 Press    =       177.6377 
Volume   =    309834.0671 
---------------- Step     2400 ----- CPU =     21.4980 (sec) ----------------
TotEng   =    -25110.6530 KinEng   =     21450.4761 Temp     =       299.1184 
PotEng   =    -46561.1291 E_bond   =      2570.6982 E_angle  =     11001.9470 
E_dihed  =      5290.1315 E_impro  =       233.0611 E_vdwl   =     -2053.2978 
E_coul   =    210611.9092 E_long   =   -274215.5783 Press    =        17.9228 
Volume   =    309768.9154 
---------------- Step     2450 ----- CPU =     21.9378 (sec) ----------------
TotEng   =    -25236.6481 KinEng   =     21433.4266 Temp     =       298.8806 
PotEng   =    -46670.0747 E_bond   =      2607.3150 E_angle  =     10998.3528 
E_dihed  =      5307.4523 E_impro  =       219.9316 E_vdwl   =     -2070.7142 
E_coul   =    210481.5175 E_long   =   -274213.9298 Press    =      -358.1752 
Volume   =    309667.0467 
---------------- Step     2500 ----- CPU =     22.3797 (sec) ----------------
TotEng   =    -25229.8617 KinEng   =     21405.5939 Temp     =       298.4925 
PotEng   =    -46635.4556 E_bond   =      2679.6209 E_angle  =     11060.1573 
E_dihed  =      5239.8526 E_impro  =       214.4918 E_vdwl   =     -2012.2758 
E_coul   =    210388.5205 E_long   =   -274205.8230 Press    =      -210.3723 
Volume   =    309484.1877 
---------------- Step     2550 ----- CPU =     22.8149 (sec) ----------------
TotEng   =    -25157.3199 KinEng   =     21450.3821 Temp     =       299.1171 
PotEng   =    -46607.7020 E_bond   =      2536.9312 E_angle  =     10988.1546 
E_dihed  =      5237.0080 E_impro  =       217.5682 E_vdwl   =     -1962.2495 
E_coul   =    210591.5022 E_long   =   -274216.6168 Press    =       243.9861 
Volume   =    309273.9397 
---------------- Step     2600 ----- CPU =     23.2472 (sec) ----------------
TotEng   =    -25028.1623 KinEng   =     21325.7760 Temp     =       297.3795 
PotEng   =    -46353.9383 E_bond   =      2585.1525 E_angle  =     11029.4882 
E_dihed  =      5317.1487 E_impro  =       231.6100 E_vdwl   =     -1987.1811 
E_coul   =    210678.5957 E_long   =   -274208.7523 Press    =         0.1802 
Volume   =    309189.2994 
---------------- Step     2650 ----- CPU =     23.6868 (sec) ----------------
TotEng   =    -24964.1106 KinEng   =     21377.4461 Temp     =       298.1000 
PotEng   =    -46341.5567 E_bond   =      2566.7362 E_angle  =     11158.0529 
E_dihed  =      5251.3251 E_impro  =       227.6172 E_vdwl   =     -1934.0778 
E_coul   =    210607.6358 E_long   =   -274218.8461 Press    =        54.3743 
Volume   =    309140.2769 
---------------- Step     2700 ----- CPU =     24.1182 (sec) ----------------
TotEng   =    -25091.4348 KinEng   =     21483.0929 Temp     =       299.5732 
PotEng   =    -46574.5276 E_bond   =      2577.2429 E_angle  =     11018.1462 
E_dihed  =      5197.7273 E_impro  =       231.7235 E_vdwl   =     -2092.4919 
E_coul   =    210707.4244 E_long   =   -274214.3000 Press    =        41.3134 
Volume   =    309280.9862 
---------------- Step     2750 ----- CPU =     24.5502 (sec) ----------------
TotEng   =    -25318.8961 KinEng   =     21462.5261 Temp     =       299.2864 
PotEng   =    -46781.4222 E_bond   =      2549.3323 E_angle  =     10879.6627 
E_dihed  =      5272.3326 E_impro  =       233.3437 E_vdwl   =     -2147.2914 
E_coul   =    210648.8862 E_long   =   -274217.6884 Press    =      -483.4472 
Volume   =    309342.4869 
---------------- Step     2800 ----- CPU =     24.9906 (sec) ----------------
TotEng   =    -25335.9186 KinEng   =     21471.7045 Temp     =       299.4144 
PotEng   =    -46807.6231 E_bond   =      2582.8891 E_angle  =     10832.4659 
E_dihed  =      5273.7686 E_impro  =       224.4392 E_vdwl   =     -2144.6121 
E_coul   =    210646.0492 E_long   =   -274222.6229 Press    =      -209.6214 
Volume   =    309301.5371 
---------------- Step     2850 ----- CPU =     25.4230 (sec) ----------------
TotEng   =    -25205.5408 KinEng   =     21491.0542 Temp     =       299.6842 
PotEng   =    -46696.5950 E_bond   =      2573.4329 E_angle  =     10956.3154 
E_dihed  =      5260.3829 E_impro  =       204.2061 E_vdwl   =     -2140.5310 
E_coul   =    210669.7616 E_long   =   -274220.1629 Press    =       104.4575 
Volume   =    309194.3728 
---------------- Step     2900 ----- CPU =     25.8628 (sec) ----------------
TotEng   =    -25041.7384 KinEng   =     21541.6288 Temp     =       300.3895 
PotEng   =    -46583.3672 E_bond   =      2532.6791 E_angle  =     11085.6339 
E_dihed  =      5204.7356 E_impro  =       228.2519 E_vdwl   =     -2161.5794 
E_coul   =    210746.9888 E_long   =   -274220.0771 Press    =      -200.0112 
Volume   =    309175.9679 
---------------- Step     2950 ----- CPU =     26.2946 (sec) ----------------
TotEng   =    -25005.9535 KinEng   =     21497.6366 Temp     =       299.7760 
PotEng   =    -46503.5901 E_bond   =      2608.9644 E_angle  =     11009.1591 
E_dihed  =      5262.9580 E_impro  =       213.4645 E_vdwl   =     -2086.7972 
E_coul   =    210691.3204 E_long   =   -274202.6592 Press    =       193.1523 
Volume   =    309107.4166 
---------------- Step     3000 ----- CPU =     26.7252 (sec) ----------------
TotEng   =    -25096.7884 KinEng   =     21452.3773 Temp     =       299.1449 
PotEng   =    -46549.1657 E_bond   =      2584.8228 E_angle  =     11106.7301 
E_dihed  =      5214.4693 E_impro  =       225.9639 E_vdwl   =     -2097.3386 
E_coul   =    210625.5678 E_long   =   -274209.3809 Press    =       171.5503 
Volume   =    308927.6510 
---------------- Step     3050 ----- CPU =     27.1584 (sec) ----------------
TotEng   =    -25199.3309 KinEng   =     21538.0385 Temp     =       300.3394 
PotEng   =    -46737.3693 E_bond   =      2602.8783 E_angle  =     10977.5208 
E_dihed  =      5243.5993 E_impro  =       208.5001 E_vdwl   =     -2097.8948 
E_coul   =    210535.5080 E_long   =   -274207.4811 Press    =       176.2161 
Volume   =    308878.1912 
---------------- Step     3100 ----- CPU =     27.5963 (sec) ----------------
TotEng   =    -25290.5381 KinEng   =     21507.5754 Temp     =       299.9146 
PotEng   =    -46798.1135 E_bond   =      2555.4732 E_angle  =     11007.6321 
E_dihed  =      5206.4108 E_impro  =       206.1911 E_vdwl   =     -2122.2870 
E_coul   =    210556.1130 E_long   =   -274207.6468 Press    =       117.7679 
Volume   =    308928.5822 
---------------- Step     3150 ----- CPU =     28.0273 (sec) ----------------
TotEng   =    -25248.0145 KinEng   =     21268.5038 Temp     =       296.5809 
PotEng   =    -46516.5184 E_bond   =      2635.5249 E_angle  =     11128.7479 
E_dihed  =      5281.8367 E_impro  =       219.9475 E_vdwl   =     -2138.7808 
E_coul   =    210578.0242 E_long   =   -274221.8187 Press    =        53.7991 
Volume   =    308934.0835 
---------------- Step     3200 ----- CPU =     28.4644 (sec) ----------------
TotEng   =    -25053.5973 KinEng   =     21630.1143 Temp     =       301.6234 
PotEng   =    -46683.7116 E_bond   =      2538.7608 E_angle  =     11069.0484 
E_dihed  =      5226.8481 E_impro  =       218.7680 E_vdwl   =     -2131.4200 
E_coul   =    210602.6729 E_long   =   -274208.3898 Press    =        37.2517 
Volume   =    308987.4462 
---------------- Step     3250 ----- CPU =     28.8940 (sec) ----------------
TotEng   =    -24869.3726 KinEng   =     21675.3124 Temp     =       302.2536 
PotEng   =    -46544.6850 E_bond   =      2585.3425 E_angle  =     11119.0011 
E_dihed  =      5223.8119 E_impro  =       218.1182 E_vdwl   =     -2147.2806 
E_coul   =    210655.0039 E_long   =   -274198.6819 Press    =       184.2315 
Volume   =    309203.5210 
---------------- Step     3300 ----- CPU =     29.3235 (sec) ----------------
TotEng   =    -24881.5046 KinEng   =     21620.2958 Temp     =       301.4865 
PotEng   =    -46501.8004 E_bond   =      2620.0813 E_angle  =     11149.2439 
E_dihed  =      5248.1333 E_impro  =       217.3725 E_vdwl   =     -2155.5749 
E_coul   =    210629.7143 E_long   =   -274210.7710 Press    =        44.1845 
Volume   =    309402.4174 
---------------- Step     3350 ----- CPU =     29.7617 (sec) ----------------
TotEng   =    -25068.8800 KinEng   =     21529.4741 Temp     =       300.2200 
PotEng   =    -46598.3541 E_bond   =      2587.4036 E_angle  =     11047.8644 
E_dihed  =      5237.4793 E_impro  =       230.1950 E_vdwl   =     -2013.9827 
E_coul   =    210519.3925 E_long   =   -274206.7062 Press    =       169.5164 
Volume   =    309565.7396 
---------------- Step     3400 ----- CPU =     30.1922 (sec) ----------------
TotEng   =    -25224.9962 KinEng   =     21344.1146 Temp     =       297.6352 
PotEng   =    -46569.1109 E_bond   =      2590.4406 E_angle  =     11009.7427 
E_dihed  =      5323.0254 E_impro  =       228.6345 E_vdwl   =     -2138.7603 
E_coul   =    210650.7092 E_long   =   -274232.9030 Press    =      -304.8010 
Volume   =    309719.9580 
---------------- Step     3450 ----- CPU =     30.6235 (sec) ----------------
TotEng   =    -25199.8559 KinEng   =     21558.5614 Temp     =       300.6256 
PotEng   =    -46758.4172 E_bond   =      2521.2322 E_angle  =     11001.1718 
E_dihed  =      5256.0471 E_impro  =       218.5811 E_vdwl   =     -2284.3714 
E_coul   =    210726.4237 E_long   =   -274197.5018 Press    =      -128.2748 
Volume   =    309796.4624 
---------------- Step     3500 ----- CPU =     31.0628 (sec) ----------------
TotEng   =    -25022.0603 KinEng   =     21431.8216 Temp     =       298.8583 
PotEng   =    -46453.8819 E_bond   =      2626.5228 E_angle  =     11057.8428 
E_dihed  =      5251.4247 E_impro  =       222.4611 E_vdwl   =     -2134.0628 
E_coul   =    210733.5348 E_long   =   -274211.6054 Press    =       -88.4400 
Volume   =    309630.1181 
---------------- Step     3550 ----- CPU =     31.4947 (sec) ----------------
TotEng   =    -24931.0752 KinEng   =     21627.4120 Temp     =       301.5857 
PotEng   =    -46558.4872 E_bond   =      2595.9445 E_angle  =     11151.3434 
E_dihed  =      5254.6437 E_impro  =       230.1318 E_vdwl   =     -1889.3666 
E_coul   =    210306.3652 E_long   =   -274207.5492 Press    =       434.5623 
Volume   =    309320.8548 
---------------- Step     3600 ----- CPU =     31.9264 (sec) ----------------
TotEng   =    -24996.5464 KinEng   =     21478.4427 Temp     =       299.5084 
PotEng   =    -46474.9890 E_bond   =      2593.4161 E_angle  =     11149.1162 
E_dihed  =      5203.5869 E_impro  =       241.6491 E_vdwl   =     -2060.7991 
E_coul   =    210615.8227 E_long   =   -274217.7808 Press    =       -74.7543 
Volume   =    309114.3604 
---------------- Step     3650 ----- CPU =     32.3576 (sec) ----------------
TotEng   =    -25123.5994 KinEng   =     21480.7749 Temp     =       299.5409 
PotEng   =    -46604.3744 E_bond   =      2573.3814 E_angle  =     11021.7816 
E_dihed  =      5244.9211 E_impro  =       241.2574 E_vdwl   =     -2138.0400 
E_coul   =    210661.4115 E_long   =   -274209.0872 Press    =       -58.7563 
Volume   =    308835.7080 
---------------- Step     3700 ----- CPU =     32.7882 (sec) ----------------
TotEng   =    -25189.2523 KinEng   =     21317.8456 Temp     =       297.2689 
PotEng   =    -46507.0979 E_bond   =      2545.0181 E_angle  =     11093.7996 
E_dihed  =      5215.0711 E_impro  =       237.4497 E_vdwl   =     -2051.8246 
E_coul   =    210663.4934 E_long   =   -274210.1052 Press    =       142.2664 
Volume   =    308692.0701 
---------------- Step     3750 ----- CPU =     33.2190 (sec) ----------------
TotEng   =    -25171.8805 KinEng   =     21563.3996 Temp     =       300.6931 
PotEng   =    -46735.2802 E_bond   =      2609.8064 E_angle  =     10969.9890 
E_dihed  =      5217.4121 E_impro  =       230.4629 E_vdwl   =     -2080.1703 
E_coul   =    210521.1380 E_long   =   -274203.9183 Press    =      -539.9741 
Volume   =    308845.7851 
---------------- Step     3800 ----- CPU =     33.6581 (sec) ----------------
TotEng   =    -25180.1008 KinEng   =     21435.0704 Temp     =       298.9036 
PotEng   =    -46615.1712 E_bond   =      2592.5491 E_angle  =     11008.3669 
E_dihed  =      5265.9885 E_impro  =       207.6228 E_vdwl   =     -2026.0287 
E_coul   =    210539.1321 E_long   =   -274202.8018 Press    =        37.7019 
Volume   =    309020.5640 
---------------- Step     3850 ----- CPU =     34.0893 (sec) ----------------
TotEng   =    -25149.0863 KinEng   =     21519.4427 Temp     =       300.0801 
PotEng   =    -46668.5290 E_bond   =      2572.3970 E_angle  =     11086.5438 
E_dihed  =      5241.7123 E_impro  =       222.8139 E_vdwl   =     -2347.2209 
E_coul   =    210764.8488 E_long   =   -274209.6237 Press    =       158.8541 
Volume   =    309097.9297 
---------------- Step     3900 ----- CPU =     34.5199 (sec) ----------------
TotEng   =    -25049.5753 KinEng   =     21410.6143 Temp     =       298.5625 
PotEng   =    -46460.1896 E_bond   =      2632.7599 E_angle  =     11101.8833 
E_dihed  =      5225.1576 E_impro  =       215.4453 E_vdwl   =     -2107.2555 
E_coul   =    210689.3783 E_long   =   -274217.5586 Press    =      -174.9322 
Volume   =    309058.0232 
---------------- Step     3950 ----- CPU =     34.9593 (sec) ----------------
TotEng   =    -24945.1299 KinEng   =     21549.8677 Temp     =       300.5044 
PotEng   =    -46494.9976 E_bond   =      2625.8560 E_angle  =     11062.8222 
E_dihed  =      5255.2565 E_impro  =       234.9133 E_vdwl   =     -2307.6297 
E_coul   =    210848.8697 E_long   =   -274215.0856 Press    =       -85.1478 
Volume   =    308988.6782 
---------------- Step     4000 ----- CPU =     35.3903 (sec) ----------------
TotEng   =    -24920.7446 KinEng   =     21525.0589 Temp     =       300.1584 
PotEng   =    -46445.8035 E_bond   =      2584.6231 E_angle  =     11108.6557 
E_dihed  =      5282.6378 E_impro  =       223.9467 E_vdwl   =     -2167.1663 
E_coul   =    210732.7350 E_long   =   -274211.2354 Press    =      -148.4754 
Volume   =    308991.9574 
---------------- Step     4050 ----- CPU =     35.8214 (sec) ----------------
TotEng   =    -25035.3732 KinEng   =     21416.2731 Temp     =       298.6414 
PotEng   =    -46451.6463 E_bond   =      2600.4329 E_angle  =     11162.7722 
E_dihed  =      5263.1858 E_impro  =       217.1743 E_vdwl   =     -2042.5471 
E_coul   =    210559.7774 E_long   =   -274212.4418 Press    =      -277.8550 
Volume   =    308972.4172 
---------------- Step     4100 ----- CPU =     36.2593 (sec) ----------------
TotEng   =    -25217.3529 KinEng   =     21439.5664 Temp     =       298.9663 
PotEng   =    -46656.9193 E_bond   =      2654.0500 E_angle  =     11021.7859 
E_dihed  =      5256.8605 E_impro  =       228.6833 E_vdwl   =     -2082.4282 
E_coul   =    210477.4205 E_long   =   -274213.2914 Press    =       -29.3442 
Volume   =    308936.5298 
---------------- Step     4150 ----- CPU =     36.6973 (sec) ----------------
TotEng   =    -25419.0760 KinEng   =     21338.3946 Temp     =       297.5555 
PotEng   =    -46757.4707 E_bond   =      2571.6206 E_angle  =     11007.7604 
E_dihed  =      5296.8105 E_impro  =       231.0481 E_vdwl   =     -2065.1183 
E_coul   =    210407.5519 E_long   =   -274207.1439 Press    =       211.6108 
Volume   =    308885.0452 
---------------- Step     4200 ----- CPU =     37.1300 (sec) ----------------
TotEng   =    -25459.2421 KinEng   =     21436.9440 Temp     =       298.9297 
PotEng   =    -46896.1861 E_bond   =      2586.7913 E_angle  =     10930.2696 
E_dihed  =      5249.6775 E_impro  =       217.4550 E_vdwl   =     -2111.7270 
E_coul   =    210447.0495 E_long   =   -274215.7020 Press    =      -334.6358 
Volume   =    308862.0559 
---------------- Step     4250 ----- CPU =     37.5609 (sec) ----------------
TotEng   =    -25221.1676 KinEng   =     21552.8818 Temp     =       300.5464 
PotEng   =    -46774.0493 E_bond   =      2556.6669 E_angle  =     11007.0323 
E_dihed  =      5300.8616 E_impro  =       221.5411 E_vdwl   =     -1877.7046 
E_coul   =    210233.2099 E_long   =   -274215.6566 Press    =       135.3958 
Volume   =    308882.9621 
---------------- Step     4300 ----- CPU =     38.0001 (sec) ----------------
TotEng   =    -25000.1945 KinEng   =     21589.7839 Temp     =       301.0610 
PotEng   =    -46589.9785 E_bond   =      2575.5101 E_angle  =     11143.7233 
E_dihed  =      5237.6899 E_impro  =       211.0109 E_vdwl   =     -2198.0984 
E_coul   =    210673.4863 E_long   =   -274233.3005 Press    =       388.6775 
Volume   =    309010.9295 
---------------- Step     4350 ----- CPU =     38.4331 (sec) ----------------
TotEng   =    -24935.5145 KinEng   =     21607.0565 Temp     =       301.3018 
PotEng   =    -46542.5710 E_bond   =      2574.2386 E_angle  =     11190.2358 
E_dihed  =      5275.2070 E_impro  =       221.4981 E_vdwl   =     -1953.3863 
E_coul   =    210361.2475 E_long   =   -274211.6117 Press    =       167.8300 
Volume   =    309040.6351 
---------------- Step     4400 ----- CPU =     38.8639 (sec) ----------------
TotEng   =    -25052.2130 KinEng   =     21595.3415 Temp     =       301.1385 
PotEng   =    -46647.5546 E_bond   =      2598.1954 E_angle  =     11081.2287 
E_dihed  =      5288.6559 E_impro  =       252.3481 E_vdwl   =     -1983.8741 
E_coul   =    210322.1642 E_long   =   -274206.2728 Press    =      -269.2983 
Volume   =    309086.9971 
---------------- Step     4450 ----- CPU =     39.3020 (sec) ----------------
TotEng   =    -25249.8509 KinEng   =     21437.5721 Temp     =       298.9384 
PotEng   =    -46687.4230 E_bond   =      2498.5711 E_angle  =     11035.0506 
E_dihed  =      5320.8843 E_impro  =       224.7911 E_vdwl   =     -2066.5374 
E_coul   =    210518.7983 E_long   =   -274218.9810 Press    =       242.4111 
Volume   =    309145.9950 
---------------- Step     4500 ----- CPU =     39.7324 (sec) ----------------
TotEng   =    -25275.7932 KinEng   =     21446.4760 Temp     =       299.0626 
PotEng   =    -46722.2692 E_bond   =      2547.6665 E_angle  =     11019.6568 
E_dihed  =      5252.1302 E_impro  =       195.1316 E_vdwl   =     -2087.1789 
E_coul   =    210559.7138 E_long   =   -274209.3892 Press    =        92.9921 
Volume   =    309243.3321 
---------------- Step     4550 ----- CPU =     40.1633 (sec) ----------------
TotEng   =    -25157.9238 KinEng   =     21616.0214 Temp     =       301.4269 
PotEng   =    -46773.9452 E_bond   =      2633.1436 E_angle  =     10966.4861 
E_dihed  =      5279.8543 E_impro  =       216.8636 E_vdwl   =     -1955.8267 
E_coul   =    210293.1436 E_long   =   -274207.6097 Press    =      -444.8008 
Volume   =    309363.0236 
---------------- Step     4600 ----- CPU =     40.5944 (sec) ----------------
TotEng   =    -25090.0860 KinEng   =     21527.2766 Temp     =       300.1893 
PotEng   =    -46617.3626 E_bond   =      2571.0954 E_angle  =     11090.7684 
E_dihed  =      5286.8180 E_impro  =       225.1606 E_vdwl   =     -1968.1362 
E_coul   =    210389.6900 E_long   =   -274212.7587 Press    =       233.8056 
Volume   =    309299.9695 
---------------- Step     4650 ----- CPU =     41.0347 (sec) ----------------
TotEng   =    -25095.8004 KinEng   =     21585.4435 Temp     =       301.0005 
PotEng   =    -46681.2439 E_bond   =      2630.7734 E_angle  =     11088.0412 
E_dihed  =      5245.0185 E_impro  =       221.7833 E_vdwl   =     -1944.4460 
E_coul   =    210275.0117 E_long   =   -274197.4261 Press    =       -90.3737 
Volume   =    309208.4155 
---------------- Step     4700 ----- CPU =     41.4684 (sec) ----------------
TotEng   =    -25187.1254 KinEng   =     21455.4965 Temp     =       299.1884 
PotEng   =    -46642.6219 E_bond   =      2613.0296 E_angle  =     11003.2177 
E_dihed  =      5358.5421 E_impro  =       256.3608 E_vdwl   =     -1982.6635 
E_coul   =    210315.8940 E_long   =   -274207.0026 Press    =       143.8002 
Volume   =    309030.1260 
---------------- Step     4750 ----- CPU =     41.9011 (sec) ----------------
TotEng   =    -25283.0781 KinEng   =     21406.7724 Temp     =       298.5090 
PotEng   =    -46689.8505 E_bond   =      2570.4719 E_angle  =     10965.8877 
E_dihed  =      5233.0023 E_impro  =       228.6633 E_vdwl   =     -2101.6057 
E_coul   =    210606.1508 E_long   =   -274192.4208 Press    =        48.2491 
Volume   =    308895.3162 
---------------- Step     4800 ----- CPU =     42.3337 (sec) ----------------
TotEng   =    -25232.6361 KinEng   =     21512.1648 Temp     =       299.9786 
PotEng   =    -46744.8009 E_bond   =      2550.8011 E_angle  =     11028.7821 
E_dihed  =      5230.3048 E_impro  =       225.0076 E_vdwl   =     -2006.2929 
E_coul   =    210424.4742 E_long   =   -274197.8779 Press    =       185.3706 
Volume   =    308796.0199 
---------------- Step     4850 ----- CPU =     42.7737 (sec) ----------------
TotEng   =    -25141.8434 KinEng   =     21500.2972 Temp     =       299.8131 
PotEng   =    -46642.1405 E_bond   =      2541.6582 E_angle  =     11159.0084 
E_dihed  =      5231.1005 E_impro  =       237.0412 E_vdwl   =     -2055.9385 
E_coul   =    210455.8018 E_long   =   -274210.8121 Press    =       200.6873 
Volume   =    308761.1193 
---------------- Step     4900 ----- CPU =     43.2053 (sec) ----------------
TotEng   =    -25115.5515 KinEng   =     21453.6563 Temp     =       299.1627 
PotEng   =    -46569.2078 E_bond   =      2591.1237 E_angle  =     11060.7599 
E_dihed  =      5280.2144 E_impro  =       202.2960 E_vdwl   =     -2134.0735 
E_coul   =    210634.4888 E_long   =   -274204.0171 Press    =       188.6925 
Volume   =    308879.0473 
---------------- Step     4950 ----- CPU =     43.6435 (sec) ----------------
TotEng   =    -25069.2627 KinEng   =     21604.9560 Temp     =       301.2726 
PotEng   =    -46674.2187 E_bond   =      2552.4504 E_angle  =     11001.9419 
E_dihed  =      5260.9473 E_impro  =       229.1288 E_vdwl   =     -2099.2666 
E_coul   =    210596.6341 E_long   =   -274216.0545 Press    =       -85.9603 
Volume   =    308895.4720 
---------------- Step     5000 ----- CPU =     44.0742 (sec) ----------------
TotEng   =    -25096.0197 KinEng   =     21582.8115 Temp     =       300.9638 
PotEng   =    -46678.8312 E_bond   =      2698.4243 E_angle  =     10971.9337 
E_dihed  =      5221.3050 E_impro  =       226.1661 E_vdwl   =     -2157.8263 
E_coul   =    210574.1650 E_long   =   -274212.9990 Press    =      -377.0062 
Volume   =    308923.4845 
---------------- Step     5050 ----- CPU =     44.5043 (sec) ----------------
TotEng   =    -25229.3609 KinEng   =     21479.9615 Temp     =       299.5296 
PotEng   =    -46709.3223 E_bond   =      2562.2061 E_angle  =     11063.0891 
E_dihed  =      5211.2753 E_impro  =       220.2523 E_vdwl   =     -2245.4329 
E_coul   =    210698.4455 E_long   =   -274219.1578 Press    =       551.6542 
Volume   =    308738.9860 
---------------- Step     5100 ----- CPU =     44.9414 (sec) ----------------
TotEng   =    -25254.4971 KinEng   =     21468.5121 Temp     =       299.3699 
PotEng   =    -46723.0092 E_bond   =      2530.8263 E_angle  =     11025.2640 
E_dihed  =      5231.7948 E_impro  =       231.2072 E_vdwl   =     -2033.7135 
E_coul   =    210517.9235 E_long   =   -274226.3115 Press    =       -10.2425 
Volume   =    308624.6334 
---------------- Step     5150 ----- CPU =     45.3703 (sec) ----------------
TotEng   =    -25129.5053 KinEng   =     21545.2177 Temp     =       300.4395 
PotEng   =    -46674.7230 E_bond   =      2575.2080 E_angle  =     11003.3700 
E_dihed  =      5265.8616 E_impro  =       237.3687 E_vdwl   =     -2145.3560 
E_coul   =    210613.3868 E_long   =   -274224.5620 Press    =      -512.9434 
Volume   =    308642.4439 
---------------- Step     5200 ----- CPU =     45.8005 (sec) ----------------
TotEng   =    -24964.4245 KinEng   =     21640.2406 Temp     =       301.7646 
PotEng   =    -46604.6651 E_bond   =      2555.2147 E_angle  =     11119.9536 
E_dihed  =      5224.8615 E_impro  =       231.5027 E_vdwl   =     -2260.4516 
E_coul   =    210734.9074 E_long   =   -274210.6534 Press    =       -58.8847 
Volume   =    308545.5823 
---------------- Step     5250 ----- CPU =     46.2382 (sec) ----------------
TotEng   =    -24943.9873 KinEng   =     21732.4568 Temp     =       303.0505 
PotEng   =    -46676.4441 E_bond   =      2572.0359 E_angle  =     11146.5815 
E_dihed  =      5242.6003 E_impro  =       238.4225 E_vdwl   =     -2117.3282 
E_coul   =    210448.5017 E_long   =   -274207.2577 Press    =       203.5800 
Volume   =    308424.0658 
---------------- Step     5300 ----- CPU =     46.6679 (sec) ----------------
TotEng   =    -25259.1389 KinEng   =     21635.3882 Temp     =       301.6969 
PotEng   =    -46894.5272 E_bond   =      2595.1497 E_angle  =     10979.7168 
E_dihed  =      5222.6470 E_impro  =       237.8064 E_vdwl   =     -2159.9929 
E_coul   =    210438.0051 E_long   =   -274207.8593 Press    =      -108.8707 
Volume   =    308482.3397 
---------------- Step     5350 ----- CPU =     47.1062 (sec) ----------------
TotEng   =    -25572.0561 KinEng   =     21514.5883 Temp     =       300.0124 
PotEng   =    -47086.6444 E_bond   =      2565.2949 E_angle  =     10954.7496 
E_dihed  =      5189.8946 E_impro  =       240.1015 E_vdwl   =     -2274.5928 
E_coul   =    210461.6907 E_long   =   -274223.7830 Press    =      -265.0792 
Volume   =    308563.9027 
---------------- Step     5400 ----- CPU =     47.5364 (sec) ----------------
TotEng   =    -25625.0121 KinEng   =     21455.3448 Temp     =       299.1863 
PotEng   =    -47080.3569 E_bond   =      2620.1567 E_angle  =     10940.6816 
E_dihed  =      5206.6910 E_impro  =       222.5649 E_vdwl   =     -2095.0314 
E_coul   =    210228.6158 E_long   =   -274204.0355 Press    =      -560.4470 
Volume   =    308539.3510 
---------------- Step     5450 ----- CPU =     47.9672 (sec) ----------------
TotEng   =    -25350.5483 KinEng   =     21386.6865 Temp     =       298.2289 
PotEng   =    -46737.2348 E_bond   =      2526.2868 E_angle  =     11125.6837 
E_dihed  =      5239.9505 E_impro  =       221.4061 E_vdwl   =     -2059.1061 
E_coul   =    210417.7925 E_long   =   -274209.2482 Press    =       155.1794 
Volume   =    308475.8607 
---------------- Step     5500 ----- CPU =     48.3987 (sec) ----------------
TotEng   =    -24935.7726 KinEng   =     21631.5760 Temp     =       301.6438 
PotEng   =    -46567.3486 E_bond   =      2641.8184 E_angle  =     11052.6160 
E_dihed  =      5308.8368 E_impro  =       215.6072 E_vdwl   =     -1978.0363 
E_coul   =    210396.9007 E_long   =   -274205.0915 Press    =       163.4350 
Volume   =    308421.3819 
---------------- Step     5550 ----- CPU =     48.8391 (sec) ----------------
TotEng   =    -24766.5554 KinEng   =     21717.5700 Temp     =       302.8429 
PotEng   =    -46484.1254 E_bond   =      2580.8976 E_angle  =     11065.4337 
E_dihed  =      5311.6133 E_impro  =       220.8443 E_vdwl   =     -1957.2281 
E_coul   =    210508.9354 E_long   =   -274214.6216 Press    =       187.1929 
Volume   =    308508.6400 
---------------- Step     5600 ----- CPU =     49.2709 (sec) ----------------
TotEng   =    -24978.1731 KinEng   =     21459.7324 Temp     =       299.2475 
PotEng   =    -46437.9054 E_bond   =      2692.1948 E_angle  =     11169.6316 
E_dihed  =      5264.4614 E_impro  =       227.2411 E_vdwl   =     -2148.9657 
E_coul   =    210564.4850 E_long   =   -274206.9536 Press    =      -264.6170 
Volume   =    308817.9631 
---------------- Step     5650 ----- CPU =     49.7043 (sec) ----------------
TotEng   =    -25337.9382 KinEng   =     21446.5040 Temp     =       299.0630 
PotEng   =    -46784.4422 E_bond   =      2542.6149 E_angle  =     10978.3733 
E_dihed  =      5226.5914 E_impro  =       213.6446 E_vdwl   =     -2126.9851 
E_coul   =    210593.9024 E_long   =   -274212.5836 Press    =         3.1348 
Volume   =    308911.0282 
---------------- Step     5700 ----- CPU =     50.1437 (sec) ----------------
TotEng   =    -25561.7656 KinEng   =     21360.9871 Temp     =       297.8705 
PotEng   =    -46922.7527 E_bond   =      2570.9868 E_angle  =     10944.5872 
E_dihed  =      5203.8033 E_impro  =       215.4282 E_vdwl   =     -2263.4066 
E_coul   =    210617.3770 E_long   =   -274211.5286 Press    =      -395.5603 
Volume   =    308934.3004 
---------------- Step     5750 ----- CPU =     50.5843 (sec) ----------------
TotEng   =    -25434.8302 KinEng   =     21458.6349 Temp     =       299.2322 
PotEng   =    -46893.4651 E_bond   =      2613.1686 E_angle  =     10814.5793 
E_dihed  =      5240.2258 E_impro  =       225.1611 E_vdwl   =     -1974.2823 
E_coul   =    210397.1237 E_long   =   -274209.4414 Press    =       390.3793 
Volume   =    308645.7059 
---------------- Step     5800 ----- CPU =     51.0192 (sec) ----------------
TotEng   =    -25174.5525 KinEng   =     21607.1180 Temp     =       301.3027 
PotEng   =    -46781.6704 E_bond   =      2577.8314 E_angle  =     11056.7767 
E_dihed  =      5227.2183 E_impro  =       200.1314 E_vdwl   =     -2133.6911 
E_coul   =    210492.7814 E_long   =   -274202.7186 Press    =       284.7906 
Volume   =    308402.0895 
---------------- Step     5850 ----- CPU =     51.4523 (sec) ----------------
TotEng   =    -25059.7395 KinEng   =     21726.3756 Temp     =       302.9657 
PotEng   =    -46786.1151 E_bond   =      2608.0770 E_angle  =     10940.0919 
E_dihed  =      5240.7431 E_impro  =       210.2898 E_vdwl   =     -1968.6761 
E_coul   =    210386.0191 E_long   =   -274202.6600 Press    =       101.3388 
Volume   =    308266.7575 
---------------- Step     5900 ----- CPU =     51.8876 (sec) ----------------
TotEng   =    -25127.2830 KinEng   =     21541.7339 Temp     =       300.3909 
PotEng   =    -46669.0170 E_bond   =      2632.0273 E_angle  =     11077.3993 
E_dihed  =      5298.9070 E_impro  =       217.9439 E_vdwl   =     -2193.0472 
E_coul   =    210507.1702 E_long   =   -274209.4174 Press    =      -175.4972 
Volume   =    308237.7998 
---------------- Step     5950 ----- CPU =     52.3313 (sec) ----------------
TotEng   =    -25244.0969 KinEng   =     21528.5838 Temp     =       300.2076 
PotEng   =    -46772.6807 E_bond   =      2526.4234 E_angle  =     11003.5914 
E_dihed  =      5274.2578 E_impro  =       225.0416 E_vdwl   =     -2111.3509 
E_coul   =    210516.0184 E_long   =   -274206.6624 Press    =        89.4130 
Volume   =    308079.7092 
---------------- Step     6000 ----- CPU =     52.7680 (sec) ----------------
TotEng   =    -25338.3752 KinEng   =     21432.0605 Temp     =       298.8616 
PotEng   =    -46770.4357 E_bond   =      2626.0333 E_angle  =     11022.7010 
E_dihed  =      5287.8283 E_impro  =       225.9437 E_vdwl   =     -2276.0021 
E_coul   =    210560.5489 E_long   =   -274217.4887 Press    =      -474.3118 
Volume   =    307942.7508 
---------------- Step     6050 ----- CPU =     53.2020 (sec) ----------------
TotEng   =    -25278.1165 KinEng   =     21395.2418 Temp     =       298.3482 
PotEng   =    -46673.3583 E_bond   =      2666.0304 E_angle  =     11093.4059 
E_dihed  =      5226.1951 E_impro  =       226.0538 E_vdwl   =     -2102.9581 
E_coul   =    210430.7359 E_long   =   -274212.8212 Press    =       -12.6453 
Volume   =    307760.5393 
---------------- Step     6100 ----- CPU =     53.6426 (sec) ----------------
TotEng   =    -25198.4584 KinEng   =     21498.1123 Temp     =       299.7827 
PotEng   =    -46696.5707 E_bond   =      2570.5818 E_angle  =     11149.8904 
E_dihed  =      5242.7731 E_impro  =       232.5687 E_vdwl   =     -1999.6483 
E_coul   =    210327.0045 E_long   =   -274219.7411 Press    =       369.4806 
Volume   =    307816.2679 
---------------- Step     6150 ----- CPU =     54.0757 (sec) ----------------
TotEng   =    -25157.3604 KinEng   =     21509.2780 Temp     =       299.9384 
PotEng   =    -46666.6383 E_bond   =      2628.1510 E_angle  =     11095.8817 
E_dihed  =      5258.7040 E_impro  =       218.9882 E_vdwl   =     -2123.4593 
E_coul   =    210474.3983 E_long   =   -274219.3022 Press    =      -674.8822 
Volume   =    308080.9343 
---------------- Step     6200 ----- CPU =     54.5091 (sec) ----------------
TotEng   =    -25188.1854 KinEng   =     21503.4149 Temp     =       299.8566 
PotEng   =    -46691.6003 E_bond   =      2600.5740 E_angle  =     11053.8887 
E_dihed  =      5277.1157 E_impro  =       214.1313 E_vdwl   =     -2230.1853 
E_coul   =    210604.8950 E_long   =   -274212.0198 Press    =      -180.4109 
Volume   =    308361.0497 
---------------- Step     6250 ----- CPU =     54.9480 (sec) ----------------
TotEng   =    -25212.7858 KinEng   =     21620.6475 Temp     =       301.4914 
PotEng   =    -46833.4333 E_bond   =      2586.7326 E_angle  =     11037.7229 
E_dihed  =      5213.0039 E_impro  =       213.0053 E_vdwl   =     -2042.0808 
E_coul   =    210365.5708 E_long   =   -274207.3879 Press    =       188.3973 
Volume   =    308731.2894 
---------------- Step     6300 ----- CPU =     55.3781 (sec) ----------------
TotEng   =    -25239.9948 KinEng   =     21541.8616 Temp     =       300.3927 
PotEng   =    -46781.8564 E_bond   =      2609.9875 E_angle  =     11107.8099 
E_dihed  =      5270.2759 E_impro  =       221.7313 E_vdwl   =     -2056.0284 
E_coul   =    210276.2111 E_long   =   -274211.8437 Press    =      -359.6709 
Volume   =    309178.6203 
---------------- Step     6350 ----- CPU =     55.8177 (sec) ----------------
TotEng   =    -25232.8897 KinEng   =     21318.8535 Temp     =       297.2830 
PotEng   =    -46551.7432 E_bond   =      2560.4729 E_angle  =     11211.9335 
E_dihed  =      5233.5252 E_impro  =       221.9119 E_vdwl   =     -1944.6135 
E_coul   =    210365.1062 E_long   =   -274200.0795 Press    =       108.2696 
Volume   =    309562.8352 
---------------- Step     6400 ----- CPU =     56.2475 (sec) ----------------
TotEng   =    -25192.1516 KinEng   =     21556.1188 Temp     =       300.5915 
PotEng   =    -46748.2704 E_bond   =      2601.1354 E_angle  =     10945.4058 
E_dihed  =      5222.9114 E_impro  =       225.3177 E_vdwl   =     -2191.7197 
E_coul   =    210645.5235 E_long   =   -274196.8444 Press    =      -603.0022 
Volume   =    309892.4873 
---------------- Step     6450 ----- CPU =     56.6856 (sec) ----------------
TotEng   =    -25110.6176 KinEng   =     21629.6284 Temp     =       301.6166 
PotEng   =    -46740.2460 E_bond   =      2530.5558 E_angle  =     10949.4809 
E_dihed  =      5287.2969 E_impro  =       226.1272 E_vdwl   =     -2057.7044 
E_coul   =    210522.0008 E_long   =   -274198.0032 Press    =        29.4743 
Volume   =    310057.3307 
---------------- Step     6500 ----- CPU =     57.1173 (sec) ----------------
TotEng   =    -25014.1005 KinEng   =     21485.3197 Temp     =       299.6043 
PotEng   =    -46499.4202 E_bond   =      2594.2866 E_angle  =     11185.5008 
E_dihed  =      5278.9147 E_impro  =       237.7944 E_vdwl   =     -2075.5199 
E_coul   =    210482.6483 E_long   =   -274203.0451 Press    =      -197.5278 
Volume   =    310124.4166 
---------------- Step     6550 ----- CPU =     57.5565 (sec) ----------------
TotEng   =    -24947.3597 KinEng   =     21607.0530 Temp     =       301.3018 
PotEng   =    -46554.4127 E_bond   =      2576.2998 E_angle  =     11032.0171 
E_dihed  =      5206.1178 E_impro  =       214.2849 E_vdwl   =     -2058.8888 
E_coul   =    210688.1482 E_long   =   -274212.3918 Press    =       233.2730 
Volume   =    310147.6079 
---------------- Step     6600 ----- CPU =     57.9872 (sec) ----------------
TotEng   =    -24921.1313 KinEng   =     21569.2554 Temp     =       300.7747 
PotEng   =    -46490.3867 E_bond   =      2637.3631 E_angle  =     11162.9808 
E_dihed  =      5266.6608 E_impro  =       214.5219 E_vdwl   =     -2215.2930 
E_coul   =    210642.1227 E_long   =   -274198.7430 Press    =      -790.7616 
Volume   =    310252.0741 
---------------- Step     6650 ----- CPU =     58.4188 (sec) ----------------
TotEng   =    -25032.4771 KinEng   =     21495.5624 Temp     =       299.7471 
PotEng   =    -46528.0395 E_bond   =      2609.0034 E_angle  =     11067.2437 
E_dihed  =      5241.7751 E_impro  =       223.0452 E_vdwl   =     -1909.9930 
E_coul   =    210440.6899 E_long   =   -274199.8038 Press    =        36.8408 
Volume   =    310099.2366 
---------------- Step     6700 ----- CPU =     58.8582 (sec) ----------------
TotEng   =    -25200.5477 KinEng   =     21488.2552 Temp     =       299.6452 
PotEng   =    -46688.8029 E_bond   =      2569.7272 E_angle  =     11042.9346 
E_dihed  =      5287.1562 E_impro  =       221.4211 E_vdwl   =     -2068.6334 
E_coul   =    210462.3585 E_long   =   -274203.7671 Press    =       -40.2247 
Volume   =    309853.9826 
---------------- Step     6750 ----- CPU =     59.2919 (sec) ----------------
TotEng   =    -25317.7176 KinEng   =     21520.2423 Temp     =       300.0913 
PotEng   =    -46837.9599 E_bond   =      2551.2177 E_angle  =     10874.2862 
E_dihed  =      5239.1576 E_impro  =       223.3637 E_vdwl   =     -1951.2637 
E_coul   =    210436.7055 E_long   =   -274211.4268 Press    =       125.3421 
Volume   =    309492.9534 
---------------- Step     6800 ----- CPU =     59.7333 (sec) ----------------
TotEng   =    -25247.5981 KinEng   =     21580.4819 Temp     =       300.9313 
PotEng   =    -46828.0800 E_bond   =      2579.0269 E_angle  =     10961.3257 
E_dihed  =      5301.3028 E_impro  =       241.9600 E_vdwl   =     -2163.5398 
E_coul   =    210471.4031 E_long   =   -274219.5586 Press    =      -153.9690 
Volume   =    309191.4036 
---------------- Step     6850 ----- CPU =     60.1659 (sec) ----------------
TotEng   =    -25143.0262 KinEng   =     21575.1438 Temp     =       300.8568 
PotEng   =    -46718.1699 E_bond   =      2607.3045 E_angle  =     11029.2597 
E_dihed  =      5261.9154 E_impro  =       217.3336 E_vdwl   =     -1972.1655 
E_coul   =    210344.5636 E_long   =   -274206.3812 Press    =        29.8980 
Volume   =    308808.5795 
---------------- Step     6900 ----- CPU =     60.5990 (sec) ----------------
TotEng   =    -25114.4406 KinEng   =     21396.5272 Temp     =       298.3661 
PotEng   =    -46510.9678 E_bond   =      2644.1178 E_angle  =     11060.5101 
E_dihed  =      5332.8034 E_impro  =       223.1511 E_vdwl   =     -2067.8213 
E_coul   =    210511.8318 E_long   =   -274215.5607 Press    =       154.3845 
Volume   =    308535.3486 
---------------- Step     6950 ----- CPU =     61.0307 (sec) ----------------
TotEng   =    -25099.5404 KinEng   =     21582.2757 Temp     =       300.9563 
PotEng   =    -46681.8161 E_bond   =      2536.7000 E_angle  =     11126.0425 
E_dihed  =      5250.9746 E_impro  =       235.6715 E_vdwl   =     -2245.4944 
E_coul   =    210624.1679 E_long   =   -274209.8781 Press    =       -63.3072 
Volume   =    308380.8767 
---------------- Step     7000 ----- CPU =     61.4638 (sec) ----------------
TotEng   =    -25179.0148 KinEng   =     21574.0732 Temp     =       300.8419 
PotEng   =    -46753.0881 E_bond   =      2571.7550 E_angle  =     11116.3806 
E_dihed  =      5230.7040 E_impro  =       216.4563 E_vdwl   =     -2092.8525 
E_coul   =    210415.4198 E_long   =   -274210.9511 Press    =       167.2348 
Volume   =    308333.6385 
---------------- Step     7050 ----- CPU =     61.9038 (sec) ----------------
TotEng   =    -25367.5543 KinEng   =     21380.2368 Temp     =       298.1389 
PotEng   =    -46747.7911 E_bond   =      2577.0574 E_angle  =     11107.0272 
E_dihed  =      5260.8379 E_impro  =       216.3581 E_vdwl   =     -2131.3509 
E_coul   =    210431.5399 E_long   =   -274209.2607 Press    =      -340.4752 
Volume   =    308382.0230 
---------------- Step     7100 ----- CPU =     62.3361 (sec) ----------------
TotEng   =    -25447.9401 KinEng   =     21457.3884 Temp     =       299.2148 
PotEng   =    -46905.3284 E_bond   =      2618.8702 E_angle  =     10968.4867 
E_dihed  =      5256.9913 E_impro  =       227.9995 E_vdwl   =     -2222.5014 
E_coul   =    210458.1894 E_long   =   -274213.3641 Press    =      -401.2561 
Volume   =    308501.1801 
---------------- Step     7150 ----- CPU =     62.7685 (sec) ----------------
TotEng   =    -25337.4360 KinEng   =     21400.0430 Temp     =       298.4151 
PotEng   =    -46737.4789 E_bond   =      2608.1797 E_angle  =     11021.2727 
E_dihed  =      5299.2699 E_impro  =       214.8040 E_vdwl   =     -2337.8075 
E_coul   =    210669.7764 E_long   =   -274212.9742 Press    =      -512.6637 
Volume   =    308784.8837 
---------------- Step     7200 ----- CPU =     63.2017 (sec) ----------------
TotEng   =    -25069.4186 KinEng   =     21637.2242 Temp     =       301.7225 
PotEng   =    -46706.6428 E_bond   =      2569.2465 E_angle  =     11036.3509 
E_dihed  =      5259.3424 E_impro  =       225.4103 E_vdwl   =     -2193.5503 
E_coul   =    210603.8411 E_long   =   -274207.2836 Press    =       -72.7237 
Volume   =    308880.8694 
---------------- Step     7250 ----- CPU =     63.6428 (sec) ----------------
TotEng   =    -24952.1400 KinEng   =     21721.5212 Temp     =       302.8980 
PotEng   =    -46673.6613 E_bond   =      2582.2554 E_angle  =     11177.8671 
E_dihed  =      5235.0532 E_impro  =       213.6979 E_vdwl   =     -2079.3762 
E_coul   =    210410.6912 E_long   =   -274213.8499 Press    =       116.4916 
Volume   =    308825.2611 
---------------- Step     7300 ----- CPU =     64.0775 (sec) ----------------
TotEng   =    -25152.9457 KinEng   =     21543.1134 Temp     =       300.4102 
PotEng   =    -46696.0591 E_bond   =      2603.1549 E_angle  =     11076.5962 
E_dihed  =      5288.4779 E_impro  =       234.1369 E_vdwl   =     -2120.2723 
E_coul   =    210430.8987 E_long   =   -274209.0514 Press    =      -502.3576 
Volume   =    308944.1914 
---------------- Step     7350 ----- CPU =     64.5132 (sec) ----------------
TotEng   =    -25423.6666 KinEng   =     21563.6625 Temp     =       300.6967 
PotEng   =    -46987.3291 E_bond   =      2572.2141 E_angle  =     10928.2232 
E_dihed  =      5281.2351 E_impro  =       228.1490 E_vdwl   =     -2138.8675 
E_coul   =    210368.7476 E_long   =   -274227.0305 Press    =      -184.9188 
Volume   =    309029.1916 
---------------- Step     7400 ----- CPU =     64.9486 (sec) ----------------
TotEng   =    -25525.2011 KinEng   =     21403.8362 Temp     =       298.4680 
PotEng   =    -46929.0373 E_bond   =      2560.7312 E_angle  =     10961.1207 
E_dihed  =      5265.3788 E_impro  =       234.2582 E_vdwl   =     -1903.4750 
E_coul   =    210159.7785 E_long   =   -274206.8297 Press    =      -225.9531 
Volume   =    309061.2676 
---------------- Step     7450 ----- CPU =     65.3847 (sec) ----------------
TotEng   =    -25313.7222 KinEng   =     21444.0127 Temp     =       299.0283 
PotEng   =    -46757.7350 E_bond   =      2610.5422 E_angle  =     11016.3540 
E_dihed  =      5220.3899 E_impro  =       216.4777 E_vdwl   =     -2015.1101 
E_coul   =    210399.6249 E_long   =   -274206.0135 Press    =      -321.4656 
Volume   =    309104.1434 
---------------- Step     7500 ----- CPU =     65.8307 (sec) ----------------
TotEng   =    -24982.1708 KinEng   =     21571.5036 Temp     =       300.8061 
PotEng   =    -46553.6744 E_bond   =      2542.8281 E_angle  =     11198.7849 
E_dihed  =      5298.3813 E_impro  =       219.2562 E_vdwl   =     -1974.0744 
E_coul   =    210369.1880 E_long   =   -274208.0385 Press    =       102.5944 
Volume   =    309089.7378 
---------------- Step     7550 ----- CPU =     66.2654 (sec) ----------------
TotEng   =    -24899.6283 KinEng   =     21763.8249 Temp     =       303.4879 
PotEng   =    -46663.4532 E_bond   =      2510.0527 E_angle  =     11094.7150 
E_dihed  =      5302.3531 E_impro  =       233.7751 E_vdwl   =     -1962.6884 
E_coul   =    210365.7078 E_long   =   -274207.3686 Press    =       124.5657 
Volume   =    309056.7717 
---------------- Step     7600 ----- CPU =     66.6991 (sec) ----------------
TotEng   =    -25020.8256 KinEng   =     21555.1944 Temp     =       300.5786 
PotEng   =    -46576.0199 E_bond   =      2592.3341 E_angle  =     11166.2917 
E_dihed  =      5263.2318 E_impro  =       231.5576 E_vdwl   =     -2240.2944 
E_coul   =    210624.7482 E_long   =   -274213.8888 Press    =        12.9483 
Volume   =    308982.9285 
---------------- Step     7650 ----- CPU =     67.1395 (sec) ----------------
TotEng   =    -25308.8823 KinEng   =     21539.1483 Temp     =       300.3549 
PotEng   =    -46848.0306 E_bond   =      2588.3708 E_angle  =     11003.9626 
E_dihed  =      5259.7479 E_impro  =       204.4440 E_vdwl   =     -2216.9163 
E_coul   =    210521.0500 E_long   =   -274208.6895 Press    =       -19.8905 
Volume   =    308866.0026 
---------------- Step     7700 ----- CPU =     67.5723 (sec) ----------------
TotEng   =    -25478.7389 KinEng   =     21411.0304 Temp     =       298.5683 
PotEng   =    -46889.7693 E_bond   =      2543.2806 E_angle  =     10987.2975 
E_dihed  =      5233.0161 E_impro  =       220.1751 E_vdwl   =     -2039.0045 
E_coul   =    210393.8345 E_long   =   -274228.3686 Press    =       196.7586 
Volume   =    308673.3412 
---------------- Step     7750 ----- CPU =     68.0041 (sec) ----------------
TotEng   =    -25446.2591 KinEng   =     21558.7273 Temp     =       300.6279 
PotEng   =    -47004.9864 E_bond   =      2568.6573 E_angle  =     10963.0805 
E_dihed  =      5259.8774 E_impro  =       216.1471 E_vdwl   =     -2068.2001 
E_coul   =    210264.5480 E_long   =   -274209.0967 Press    =       -97.5219 
Volume   =    308412.7718 
---------------- Step     7800 ----- CPU =     68.4427 (sec) ----------------
TotEng   =    -25326.1444 KinEng   =     21420.5276 Temp     =       298.7008 
PotEng   =    -46746.6720 E_bond   =      2597.5029 E_angle  =     11079.2612 
E_dihed  =      5176.7076 E_impro  =       220.7887 E_vdwl   =     -1993.9381 
E_coul   =    210387.6010 E_long   =   -274214.5953 Press    =        66.4159 
Volume   =    308204.4613 
---------------- Step     7850 ----- CPU =     68.8727 (sec) ----------------
TotEng   =    -25170.8045 KinEng   =     21489.9545 Temp     =       299.6689 
PotEng   =    -46660.7590 E_bond   =      2575.3097 E_angle  =     10967.0089 
E_dihed  =      5277.5921 E_impro  =       234.1983 E_vdwl   =     -2237.8508 
E_coul   =    210740.6414 E_long   =   -274217.6587 Press    =         3.8288 
Volume   =    308090.9631 
---------------- Step     7900 ----- CPU =     69.3017 (sec) ----------------
TotEng   =    -25008.0836 KinEng   =     21640.0623 Temp     =       301.7621 
PotEng   =    -46648.1460 E_bond   =      2561.2221 E_angle  =     11171.9589 
E_dihed  =      5267.1023 E_impro  =       224.0794 E_vdwl   =     -2127.2874 
E_coul   =    210468.2038 E_long   =   -274213.4250 Press    =       157.9341 
Volume   =    308142.5230 
---------------- Step     7950 ----- CPU =     69.7367 (sec) ----------------
TotEng   =    -25066.4245 KinEng   =     21523.6399 Temp     =       300.1386 
PotEng   =    -46590.0645 E_bond   =      2600.2975 E_angle  =     11074.4359 
E_dihed  =      5273.3839 E_impro  =       209.1938 E_vdwl   =     -2054.8001 
E_coul   =    210526.2420 E_long   =   -274218.8175 Press    =       311.8585 
Volume   =    308212.6394 
---------------- Step     8000 ----- CPU =     70.1638 (sec) ----------------
TotEng   =    -25328.1782 KinEng   =     21549.2222 Temp     =       300.4954 
PotEng   =    -46877.4004 E_bond   =      2531.2216 E_angle  =     11078.7765 
E_dihed  =      5276.9010 E_impro  =       212.8251 E_vdwl   =     -2187.5804 
E_coul   =    210426.1763 E_long   =   -274215.7205 Press    =      -234.9125 
Volume   =    308352.1018 
---------------- Step     8050 ----- CPU =     70.5920 (sec) ----------------
TotEng   =    -25553.7393 KinEng   =     21440.0532 Temp     =       298.9730 
PotEng   =    -46993.7925 E_bond   =      2564.7023 E_angle  =     10905.7157 
E_dihed  =      5269.5167 E_impro  =       223.1874 E_vdwl   =     -2230.0616 
E_coul   =    210483.6217 E_long   =   -274210.4746 Press    =      -468.4650 
Volume   =    308462.3939 
---------------- Step     8100 ----- CPU =     71.0215 (sec) ----------------
TotEng   =    -25632.2472 KinEng   =     21406.5759 Temp     =       298.5062 
PotEng   =    -47038.8230 E_bond   =      2680.2077 E_angle  =     11068.2861 
E_dihed  =      5211.2595 E_impro  =       228.0534 E_vdwl   =     -2124.2536 
E_coul   =    210110.8344 E_long   =   -274213.2106 Press    =        26.3232 
Volume   =    308451.8663 
---------------- Step     8150 ----- CPU =     71.4593 (sec) ----------------
TotEng   =    -25451.1917 KinEng   =     21333.5513 Temp     =       297.4879 
PotEng   =    -46784.7430 E_bond   =      2565.3008 E_angle  =     11034.2287 
E_dihed  =      5258.6765 E_impro  =       237.8582 E_vdwl   =     -2038.0359 
E_coul   =    210371.4211 E_long   =   -274214.1925 Press    =       324.7706 
Volume   =    308462.6941 
---------------- Step     8200 ----- CPU =     71.8902 (sec) ----------------
TotEng   =    -25127.6516 KinEng   =     21650.8084 Temp     =       301.9119 
PotEng   =    -46778.4600 E_bond   =      2619.3795 E_angle  =     11124.4710 
E_dihed  =      5282.1861 E_impro  =       225.1890 E_vdwl   =     -2148.8708 
E_coul   =    210328.8387 E_long   =   -274209.6535 Press    =       122.5663 
Volume   =    308577.8532 
---------------- Step     8250 ----- CPU =     72.3217 (sec) ----------------
TotEng   =    -24979.3920 KinEng   =     21801.7484 Temp     =       304.0167 
PotEng   =    -46781.1404 E_bond   =      2574.1930 E_angle  =     11005.0493 
E_dihed  =      5249.2478 E_impro  =       229.5910 E_vdwl   =     -2228.8828 
E_coul   =    210617.6933 E_long   =   -274228.0319 Press    =       187.8298 
Volume   =    308604.1930 
---------------- Step     8300 ----- CPU =     72.7538 (sec) ----------------
TotEng   =    -25074.8298 KinEng   =     21677.5263 Temp     =       302.2845 
PotEng   =    -46752.3561 E_bond   =      2560.6116 E_angle  =     11176.8278 
E_dihed  =      5255.2304 E_impro  =       210.6565 E_vdwl   =     -2171.0926 
E_coul   =    210420.2000 E_long   =   -274204.7898 Press    =      -387.0686 
Volume   =    308645.5409 
---------------- Step     8350 ----- CPU =     73.1861 (sec) ----------------
TotEng   =    -25339.1295 KinEng   =     21336.9328 Temp     =       297.5351 
PotEng   =    -46676.0623 E_bond   =      2621.8977 E_angle  =     11036.1837 
E_dihed  =      5229.8591 E_impro  =       211.1922 E_vdwl   =     -2190.8967 
E_coul   =    210632.5607 E_long   =   -274216.8589 Press    =      -116.4020 
Volume   =    308535.6626 
---------------- Step     8400 ----- CPU =     73.6185 (sec) ----------------
TotEng   =    -25430.7163 KinEng   =     21480.0153 Temp     =       299.5303 
PotEng   =    -46910.7316 E_bond   =      2545.1475 E_angle  =     11013.6597 
E_dihed  =      5253.0035 E_impro  =       227.5132 E_vdwl   =     -2022.9883 
E_coul   =    210289.7788 E_long   =   -274216.8461 Press    =       376.9771 
Volume   =    308415.3781 
---------------- Step     8450 ----- CPU =     74.0518 (sec) ----------------
TotEng   =    -25415.0173 KinEng   =     21393.0016 Temp     =       298.3169 
PotEng   =    -46808.0189 E_bond   =      2615.2328 E_angle  =     11097.1821 
E_dihed  =      5217.5325 E_impro  =       209.2269 E_vdwl   =     -2022.8897 
E_coul   =    210290.3681 E_long   =   -274214.6716 Press    =      -386.3272 
Volume   =    308536.6144 
---------------- Step     8500 ----- CPU =     74.4924 (sec) ----------------
TotEng   =    -25375.2000 KinEng   =     21480.5787 Temp     =       299.5382 
PotEng   =    -46855.7788 E_bond   =      2561.6743 E_angle  =     11111.6758 
E_dihed  =      5217.1699 E_impro  =       226.3287 E_vdwl   =     -2177.2692 
E_coul   =    210411.6397 E_long   =   -274206.9980 Press    =      -138.1965 
Volume   =    308478.2210 
---------------- Step     8550 ----- CPU =     74.9253 (sec) ----------------
TotEng   =    -25314.3661 KinEng   =     21597.2428 Temp     =       301.1650 
PotEng   =    -46911.6088 E_bond   =      2583.4305 E_angle  =     11095.4270 
E_dihed  =      5222.2739 E_impro  =       232.7065 E_vdwl   =     -2140.7823 
E_coul   =    210314.2394 E_long   =   -274218.9037 Press    =       380.8724 
Volume   =    308399.6408 
---------------- Step     8600 ----- CPU =     75.3658 (sec) ----------------
TotEng   =    -25243.9589 KinEng   =     21546.5247 Temp     =       300.4577 
PotEng   =    -46790.4836 E_bond   =      2634.8090 E_angle  =     11089.0889 
E_dihed  =      5281.9707 E_impro  =       208.8365 E_vdwl   =     -2208.4712 
E_coul   =    210408.5240 E_long   =   -274205.2416 Press    =      -522.0152 
Volume   =    308410.3149 
---------------- Step     8650 ----- CPU =     75.7985 (sec) ----------------
TotEng   =    -25261.4655 KinEng   =     21662.9362 Temp     =       302.0811 
PotEng   =    -46924.4017 E_bond   =      2601.4055 E_angle  =     10928.5801 
E_dihed  =      5267.7607 E_impro  =       220.6397 E_vdwl   =     -2236.0690 
E_coul   =    210497.6422 E_long   =   -274204.3610 Press    =      -113.6874 
Volume   =    308274.9054 
---------------- Step     8700 ----- CPU =     76.2317 (sec) ----------------
TotEng   =    -25346.2887 KinEng   =     21696.6371 Temp     =       302.5510 
PotEng   =    -47042.9258 E_bond   =      2616.7256 E_angle  =     11075.5420 
E_dihed  =      5273.9383 E_impro  =       214.5110 E_vdwl   =     -2051.2954 
E_coul   =    210037.4935 E_long   =   -274209.8407 Press    =      -338.3412 
Volume   =    308124.5105 
---------------- Step     8750 ----- CPU =     76.6738 (sec) ----------------
TotEng   =    -25453.0448 KinEng   =     21603.4181 Temp     =       301.2511 
PotEng   =    -47056.4628 E_bond   =      2578.0652 E_angle  =     11035.4496 
E_dihed  =      5233.7522 E_impro  =       228.7795 E_vdwl   =     -2167.9334 
E_coul   =    210251.7619 E_long   =   -274216.3378 Press    =      -446.0871 
Volume   =    308021.0656 
---------------- Step     8800 ----- CPU =     77.1085 (sec) ----------------
TotEng   =    -25398.3578 KinEng   =     21400.8581 Temp     =       298.4265 
PotEng   =    -46799.2159 E_bond   =      2610.5234 E_angle  =     11101.9541 
E_dihed  =      5222.0406 E_impro  =       223.3076 E_vdwl   =     -2290.9857 
E_coul   =    210551.6453 E_long   =   -274217.7012 Press    =        98.5583 
Volume   =    307759.2548 
---------------- Step     8850 ----- CPU =     77.5422 (sec) ----------------
TotEng   =    -25149.3858 KinEng   =     21666.0171 Temp     =       302.1240 
PotEng   =    -46815.4029 E_bond   =      2599.3636 E_angle  =     11050.8044 
E_dihed  =      5265.9265 E_impro  =       226.8244 E_vdwl   =     -2188.3684 
E_coul   =    210460.7797 E_long   =   -274230.7330 Press    =      -253.6801 
Volume   =    307470.5013 
---------------- Step     8900 ----- CPU =     77.9822 (sec) ----------------
TotEng   =    -25081.2833 KinEng   =     21509.2549 Temp     =       299.9380 
PotEng   =    -46590.5382 E_bond   =      2653.0930 E_angle  =     11083.4006 
E_dihed  =      5259.1513 E_impro  =       228.5327 E_vdwl   =     -1978.2025 
E_coul   =    210384.5614 E_long   =   -274221.0747 Press    =       124.2135 
Volume   =    307300.0362 
---------------- Step     8950 ----- CPU =     78.4143 (sec) ----------------
TotEng   =    -25237.1659 KinEng   =     21761.7468 Temp     =       303.4589 
PotEng   =    -46998.9127 E_bond   =      2642.2550 E_angle  =     11035.6974 
E_dihed  =      5238.0986 E_impro  =       218.6226 E_vdwl   =     -2039.4295 
E_coul   =    210119.2628 E_long   =   -274213.4195 Press    =        23.3525 
Volume   =    307413.7291 
---------------- Step     9000 ----- CPU =     78.8535 (sec) ----------------
TotEng   =    -25541.9091 KinEng   =     21467.3048 Temp     =       299.3531 
PotEng   =    -47009.2139 E_bond   =      2589.7731 E_angle  =     10999.8828 
E_dihed  =      5276.6214 E_impro  =       245.3817 E_vdwl   =     -2054.6479 
E_coul   =    210141.4094 E_long   =   -274207.6344 Press    =      -388.8203 
Volume   =    307602.3654 
---------------- Step     9050 ----- CPU =     79.2859 (sec) ----------------
TotEng   =    -25734.5531 KinEng   =     21306.1657 Temp     =       297.1060 
PotEng   =    -47040.7189 E_bond   =      2547.3949 E_angle  =     11067.8506 
E_dihed  =      5236.3235 E_impro  =       226.4404 E_vdwl   =     -2038.3700 
E_coul   =    210135.9980 E_long   =   -274216.3563 Press    =       429.9357 
Volume   =    307666.2860 
---------------- Step     9100 ----- CPU =     79.7174 (sec) ----------------
TotEng   =    -25625.1711 KinEng   =     21285.6096 Temp     =       296.8194 
PotEng   =    -46910.7807 E_bond   =      2602.7644 E_angle  =     11045.7975 
E_dihed  =      5291.6778 E_impro  =       227.4267 E_vdwl   =     -2025.1436 
E_coul   =    210157.3458 E_long   =   -274210.6494 Press    =        12.8912 
Volume   =    307763.0077 
---------------- Step     9150 ----- CPU =     80.1563 (sec) ----------------
TotEng   =    -25364.8312 KinEng   =     21516.6363 Temp     =       300.0410 
PotEng   =    -46881.4676 E_bond   =      2581.9019 E_angle  =     11064.6627 
E_dihed  =      5276.1147 E_impro  =       226.0892 E_vdwl   =     -1962.5477 
E_coul   =    210155.1204 E_long   =   -274222.8088 Press    =       620.0255 
Volume   =    307928.6995 
---------------- Step     9200 ----- CPU =     80.5869 (sec) ----------------
TotEng   =    -25137.9229 KinEng   =     21472.7161 Temp     =       299.4285 
PotEng   =    -46610.6389 E_bond   =      2673.3214 E_angle  =     11202.3867 
E_dihed  =      5240.3715 E_impro  =       217.2959 E_vdwl   =     -1954.9144 
E_coul   =    210215.0643 E_long   =   -274204.1643 Press    =      -125.8116 
Volume   =    308203.0311 
---------------- Step     9250 ----- CPU =     81.0165 (sec) ----------------
TotEng   =    -25095.3868 KinEng   =     21658.7211 Temp     =       302.0223 
PotEng   =    -46754.1079 E_bond   =      2556.8486 E_angle  =     11130.2231 
E_dihed  =      5260.1509 E_impro  =       242.3760 E_vdwl   =     -2018.3302 
E_coul   =    210288.3468 E_long   =   -274213.7231 Press    =      -253.4263 
Volume   =    308421.8570 
---------------- Step     9300 ----- CPU =     81.4457 (sec) ----------------
TotEng   =    -25258.9629 KinEng   =     21613.4125 Temp     =       301.3905 
PotEng   =    -46872.3754 E_bond   =      2587.0209 E_angle  =     11109.4310 
E_dihed  =      5238.6126 E_impro  =       234.0491 E_vdwl   =     -1836.5068 
E_coul   =    210011.1920 E_long   =   -274216.1742 Press    =      -111.1901 
Volume   =    308667.1367 
---------------- Step     9350 ----- CPU =     81.8827 (sec) ----------------
TotEng   =    -25502.3785 KinEng   =     21396.6695 Temp     =       298.3681 
PotEng   =    -46899.0479 E_bond   =      2615.8198 E_angle  =     10995.1447 
E_dihed  =      5279.2276 E_impro  =       235.4963 E_vdwl   =     -2035.6965 
E_coul   =    210233.8757 E_long   =   -274222.9155 Press    =        37.8764 
Volume   =    308818.3360 
---------------- Step     9400 ----- CPU =     82.3123 (sec) ----------------
TotEng   =    -25567.1677 KinEng   =     21326.2223 Temp     =       297.3857 
PotEng   =    -46893.3901 E_bond   =      2593.8036 E_angle  =     11055.8635 
E_dihed  =      5229.5897 E_impro  =       236.1685 E_vdwl   =     -2201.0760 
E_coul   =    210400.9119 E_long   =   -274208.6513 Press    =      -273.8438 
Volume   =    308923.1248 
---------------- Step     9450 ----- CPU =     82.7450 (sec) ----------------
TotEng   =    -25396.8804 KinEng   =     21491.7563 Temp     =       299.6940 
PotEng   =    -46888.6367 E_bond   =      2560.6004 E_angle  =     11045.8085 
E_dihed  =      5253.0736 E_impro  =       242.2289 E_vdwl   =     -2085.4384 
E_coul   =    210299.6239 E_long   =   -274204.5336 Press    =       -50.6578 
Volume   =    308986.4631 
---------------- Step     9500 ----- CPU =     83.1828 (sec) ----------------
TotEng   =    -25183.1494 KinEng   =     21563.9633 Temp     =       300.7009 
PotEng   =    -46747.1127 E_bond   =      2614.3597 E_angle  =     11153.8184 
E_dihed  =      5256.8586 E_impro  =       238.0503 E_vdwl   =     -1956.9191 
E_coul   =    210141.8173 E_long   =   -274195.0979 Press    =      -269.5735 
Volume   =    309008.4057 
---------------- Step     9550 ----- CPU =     83.6133 (sec) ----------------
TotEng   =    -25142.5275 KinEng   =     21656.7897 Temp     =       301.9954 
PotEng   =    -46799.3172 E_bond   =      2524.0910 E_angle  =     11041.9090 
E_dihed  =      5317.2429 E_impro  =       216.0904 E_vdwl   =     -1997.7511 
E_coul   =    210317.4243 E_long   =   -274218.3236 Press    =       294.5445 
Volume   =    308975.5507 
---------------- Step     9600 ----- CPU =     84.0509 (sec) ----------------
TotEng   =    -25283.3061 KinEng   =     21548.3241 Temp     =       300.4828 
PotEng   =    -46831.6301 E_bond   =      2590.1776 E_angle  =     11224.7144 
E_dihed  =      5279.9357 E_impro  =       218.8524 E_vdwl   =     -1943.9244 
E_coul   =    210001.4865 E_long   =   -274202.8724 Press    =       142.3462 
Volume   =    308886.6145 
---------------- Step     9650 ----- CPU =     84.4804 (sec) ----------------
TotEng   =    -25557.2445 KinEng   =     21493.6529 Temp     =       299.7205 
PotEng   =    -47050.8974 E_bond   =      2532.5321 E_angle  =     11126.2692 
E_dihed  =      5224.8640 E_impro  =       208.0347 E_vdwl   =     -1972.2302 
E_coul   =    210040.8240 E_long   =   -274211.1913 Press    =       187.0384 
Volume   =    308878.9607 
---------------- Step     9700 ----- CPU =     84.9095 (sec) ----------------
TotEng   =    -25667.8302 KinEng   =     21457.4824 Temp     =       299.2161 
PotEng   =    -47125.3126 E_bond   =      2572.1691 E_angle  =     10911.8454 
E_dihed  =      5271.7947 E_impro  =       221.6124 E_vdwl   =     -2034.4068 
E_coul   =    210149.2319 E_long   =   -274217.5592 Press    =        41.3185 
Volume   =    308960.2892 
---------------- Step     9750 ----- CPU =     85.3472 (sec) ----------------
TotEng   =    -25485.7519 KinEng   =     21564.2272 Temp     =       300.7046 
PotEng   =    -47049.9791 E_bond   =      2559.7487 E_angle  =     11129.0570 
E_dihed  =      5241.4586 E_impro  =       235.2604 E_vdwl   =     -1962.4500 
E_coul   =    209962.1234 E_long   =   -274215.1772 Press    =      -153.7782 
Volume   =    308932.2463 
---------------- Step     9800 ----- CPU =     85.7767 (sec) ----------------
TotEng   =    -25172.3859 KinEng   =     21719.4283 Temp     =       302.8688 
PotEng   =    -46891.8142 E_bond   =      2555.8357 E_angle  =     11087.5830 
E_dihed  =      5214.2414 E_impro  =       214.6312 E_vdwl   =     -1999.9887 
E_coul   =    210241.7255 E_long   =   -274205.8423 Press    =       214.0237 
Volume   =    308876.3278 
---------------- Step     9850 ----- CPU =     86.2059 (sec) ----------------
TotEng   =    -24987.1663 KinEng   =     21694.6064 Temp     =       302.5227 
PotEng   =    -46681.7726 E_bond   =      2615.7200 E_angle  =     11278.7101 
E_dihed  =      5272.5039 E_impro  =       244.6457 E_vdwl   =     -2061.6810 
E_coul   =    210187.1710 E_long   =   -274218.8424 Press    =       282.0830 
Volume   =    309180.1859 
---------------- Step     9900 ----- CPU =     86.6427 (sec) ----------------
TotEng   =    -25137.1931 KinEng   =     21540.1046 Temp     =       300.3682 
PotEng   =    -46677.2977 E_bond   =      2630.6963 E_angle  =     11009.2904 
E_dihed  =      5290.1529 E_impro  =       240.7284 E_vdwl   =     -2060.5558 
E_coul   =    210428.3524 E_long   =   -274215.9622 Press    =        73.3163 
Volume   =    309472.0923 
---------------- Step     9950 ----- CPU =     87.0751 (sec) ----------------
TotEng   =    -25341.7872 KinEng   =     21451.4771 Temp     =       299.1323 
PotEng   =    -46793.2643 E_bond   =      2633.2423 E_angle  =     11070.7001 
E_dihed  =      5284.9191 E_impro  =       229.4993 E_vdwl   =     -2200.3065 
E_coul   =    210397.0966 E_long   =   -274208.4150 Press    =      -296.0084 
Volume   =    309615.5161 
---------------- Step    10000 ----- CPU =     87.5056 (sec) ----------------
TotEng   =    -25438.9915 KinEng   =     21503.2351 Temp     =       299.8541 
PotEng   =    -46942.2266 E_bond   =      2565.6297 E_angle  =     11065.4331 
E_dihed  =      5262.6594 E_impro  =       225.5209 E_vdwl   =     -2205.3765 
E_coul   =    210374.5736 E_long   =   -274230.6668 Press    =       267.3309 
Volume   =    309508.1415 
Loop time of 87.5056 on 8 procs for 10000 steps with 32000 atoms

Performance: 19.747 ns/day, 1.215 hours/ns, 114.278 timesteps/s
99.2% CPU use with 8 MPI tasks x 1 OpenMP threads

MPI task timing breakdown:
Section |  min time  |  avg time  |  max time  |%varavg| %total
---------------------------------------------------------------
Pair    | 53.238     | 54.688     | 55.596     |   9.4 | 62.50
Bond    | 3.0687     | 3.2869     | 3.558      |   8.9 |  3.76
Kspace  | 11.981     | 12.977     | 14.161     |  18.7 | 14.83
Neigh   | 6.6802     | 6.6841     | 6.6874     |   0.1 |  7.64
Comm    | 3.1784     | 3.2522     | 3.4349     |   5.5 |  3.72
Output  | 0.0075052  | 0.0079402  | 0.010886   |   1.2 |  0.01
Modify  | 5.7935     | 6.2359     | 6.3895     |   9.3 |  7.13
Other   |            | 0.3736     |            |       |  0.43

Nlocal:           4000 ave        4041 max        3945 min
Histogram: 1 0 1 1 1 0 0 1 1 2
Nghost:        15995.5 ave       16062 max       15953 min
Histogram: 3 0 1 1 1 0 0 0 1 1
Neighs:    1.49657e+06 ave 1.52545e+06 max 1.45712e+06 min
Histogram: 1 0 1 1 1 0 0 1 1 2

Total # of neighbors = 11972532
Ave neighs/atom = 374.14162
Ave special neighs/atom = 7.431875
Neighbor list builds = 1070
Dangerous builds = 0
Total wall time: 0:01:27
Intel(R) VTune(TM) Profiler 2022.2.0 collection completed successfully. Use the "aps --report /home/ubuntu/lammps/bench/aps_result_20220703" command to generate textual and HTML reports for the profiling session.
