LAMMPS (7 Jan 2022)
  using 1 OpenMP thread(s) per MPI task
Reading data file ...
  orthogonal box = (-27.5 -38.5 -36.3646) to (27.5 38.5 36.3615)
  2 by 4 by 4 MPI processor grid
  reading atoms ...
  32000 atoms
  reading velocities ...
  32000 velocities
  scanning bonds ...
  4 = max bonds/atom
  scanning angles ...
  8 = max angles/atom
  scanning dihedrals ...
  18 = max dihedrals/atom
  scanning impropers ...
  2 = max impropers/atom
  reading bonds ...
  27723 bonds
  reading angles ...
  40467 angles
  reading dihedrals ...
  56829 dihedrals
  reading impropers ...
  1034 impropers
Finding 1-2 1-3 1-4 neighbors ...
  special bond factors lj:    0        0        0       
  special bond factors coul:  0        0        0       
     4 = max # of 1-2 neighbors
    12 = max # of 1-3 neighbors
    24 = max # of 1-4 neighbors
    26 = max # of special neighbors
  special bonds CPU = 0.005 seconds
  read_data CPU = 0.262 seconds
Replicating atoms ...
  orthogonal box = (-27.5 -38.5 -36.3646) to (137.5 192.5 181.8137)
  2 by 4 by 4 MPI processor grid
  864000 atoms
  748521 bonds
  1092609 angles
  1534383 dihedrals
  27918 impropers
Finding 1-2 1-3 1-4 neighbors ...
  special bond factors lj:    0        0        0       
  special bond factors coul:  0        0        0       
     4 = max # of 1-2 neighbors
    12 = max # of 1-3 neighbors
    24 = max # of 1-4 neighbors
    26 = max # of special neighbors
  special bonds CPU = 0.033 seconds
  replicate CPU = 0.073 seconds
Finding SHAKE clusters ...
   43659 = # of size 2 clusters
   98091 = # of size 3 clusters
   20169 = # of size 4 clusters
  114291 = # of frozen angles
  find clusters CPU = 0.016 seconds
PPPM initialization ...
  using 12-bit tables for long-range coulomb (../kspace.cpp:340)
  G vector (1/distance) = 0.25235202
  grid = 72 90 90
  stencil order = 7
  estimated absolute RMS force accuracy = 0.029803316
  estimated relative force accuracy = 8.9751802e-05
  using single precision MKL FFT
  3d grid and FFT values/proc = 38700 19440
----------------------------------------------------------
Using INTEL Package without Coprocessor.
Compiler: Intel Classic C++ 20.21.5 / Intel(R) C++ g++ 9.3 mode
SIMD compiler directives: Enabled
Precision: mixed
----------------------------------------------------------
  generated 2278 of 2278 mixed pair_coeff terms from arithmetic mixing rule
Neighbor list info ...
  update every 1 steps, delay 5 steps, check yes
  max neighbors/atom: 2000, page size: 100000
  master list distance cutoff = 12
  ghost atom cutoff = 12
  binsize = 6, bins = 28 39 37
  1 neighbor lists, perpetual/occasional/extra = 1 0 0
  (1) pair lj/charmm/coul/long/intel, perpetual
      attributes: half, newton on, intel
      pair build: half/bin/newton/intel
      stencil: half/bin/3d
      bin: intel
Setting up Verlet run ...
  Unit style    : real
  Current step  : 0
  Time step     : 2
Per MPI rank memory allocation (min/avg/max) = 324.2 | 326.9 | 329.8 Mbytes
---------------- Step        0 ----- CPU =      0.0000 (sec) ----------------
TotEng   =   -684670.9761 KinEng   =    579010.4447 Temp     =       299.0277 
PotEng   =  -1263681.4207 E_bond   =     68525.6859 E_angle  =    294877.1223 
E_dihed  =    140718.2350 E_impro  =      5764.8965 E_vdwl   =    -62312.3838 
E_coul   =   5692538.4978 E_long   =  -7403793.4744 Press    =      -148.6879 
Volume   =   8315865.9045 
---------------- Step       50 ----- CPU =      3.6184 (sec) ----------------
TotEng   =   -683945.7313 KinEng   =    580526.0681 Temp     =       299.8104 
PotEng   =  -1264471.7994 E_bond   =     66737.4420 E_angle  =    292591.3758 
E_dihed  =    141470.6513 E_impro  =      6132.4271 E_vdwl   =    -53811.2235 
E_coul   =   5686392.7410 E_long   =  -7403985.2130 Press    =       238.9123 
Volume   =   8316862.5505 
---------------- Step      100 ----- CPU =      6.7579 (sec) ----------------
TotEng   =   -682827.7630 KinEng   =    582915.3069 Temp     =       301.0444 
PotEng   =  -1265743.0699 E_bond   =     69335.4201 E_angle  =    291121.3611 
E_dihed  =    140366.2515 E_impro  =      5852.7523 E_vdwl   =    -51271.2327 
E_coul   =   5682697.1730 E_long   =  -7403844.7951 Press    =        14.5925 
Volume   =   8319656.0498 
---------------- Step      150 ----- CPU =      9.8864 (sec) ----------------
TotEng   =   -681933.9875 KinEng   =    581471.1330 Temp     =       300.2985 
PotEng   =  -1263405.1205 E_bond   =     69034.6918 E_angle  =    293077.3023 
E_dihed  =    142143.1282 E_impro  =      5481.5186 E_vdwl   =    -56003.7528 
E_coul   =   5686434.8966 E_long   =  -7403572.9052 Press    =       244.1771 
Volume   =   8330011.8063 
---------------- Step      200 ----- CPU =     13.0183 (sec) ----------------
TotEng   =   -677045.1040 KinEng   =    581665.0006 Temp     =       300.3986 
PotEng   =  -1258710.1045 E_bond   =     67217.2071 E_angle  =    299059.3302 
E_dihed  =    140985.4794 E_impro  =      6276.4136 E_vdwl   =    -58007.1072 
E_coul   =   5689302.9329 E_long   =  -7403544.3605 Press    =        40.8124 
Volume   =   8342999.9631 
---------------- Step      250 ----- CPU =     16.0886 (sec) ----------------
TotEng   =   -673906.0320 KinEng   =    581418.2388 Temp     =       300.2712 
PotEng   =  -1255324.2708 E_bond   =     68622.5497 E_angle  =    299579.4858 
E_dihed  =    141627.7142 E_impro  =      5762.4903 E_vdwl   =    -58458.6625 
E_coul   =   5691556.0142 E_long   =  -7404013.8625 Press    =      -156.3691 
Volume   =   8353619.7916 
---------------- Step      300 ----- CPU =     19.2144 (sec) ----------------
TotEng   =   -675757.7644 KinEng   =    581039.1862 Temp     =       300.0754 
PotEng   =  -1256796.9506 E_bond   =     69142.5377 E_angle  =    294996.1415 
E_dihed  =    140989.2771 E_impro  =      6060.9776 E_vdwl   =    -58719.8138 
E_coul   =   5694361.5732 E_long   =  -7403627.6439 Press    =      -387.0409 
Volume   =   8362034.1659 
---------------- Step      350 ----- CPU =     22.2690 (sec) ----------------
TotEng   =   -678673.4758 KinEng   =    582966.6870 Temp     =       301.0709 
PotEng   =  -1261640.1627 E_bond   =     69681.3148 E_angle  =    295880.9346 
E_dihed  =    141867.6937 E_impro  =      5643.4556 E_vdwl   =    -55483.0082 
E_coul   =   5684758.0477 E_long   =  -7403988.6011 Press    =      -329.5017 
Volume   =   8365838.9276 
---------------- Step      400 ----- CPU =     25.4492 (sec) ----------------
TotEng   =   -682510.6457 KinEng   =    578754.3073 Temp     =       298.8954 
PotEng   =  -1261264.9530 E_bond   =     68685.7325 E_angle  =    295000.2961 
E_dihed  =    140848.8304 E_impro  =      5797.7292 E_vdwl   =    -53631.2846 
E_coul   =   5685746.8881 E_long   =  -7403713.1447 Press    =       267.5445 
Volume   =   8366846.3056 
---------------- Step      450 ----- CPU =     28.5652 (sec) ----------------
TotEng   =   -684410.0502 KinEng   =    579106.0903 Temp     =       299.0771 
PotEng   =  -1263516.1405 E_bond   =     67198.1667 E_angle  =    294439.7089 
E_dihed  =    142306.8780 E_impro  =      6057.5450 E_vdwl   =    -60410.3842 
E_coul   =   5690663.7834 E_long   =  -7403771.8382 Press    =       143.5176 
Volume   =   8368627.8689 
---------------- Step      500 ----- CPU =     31.7456 (sec) ----------------
TotEng   =   -678905.8442 KinEng   =    580735.7495 Temp     =       299.9187 
PotEng   =  -1259641.5937 E_bond   =     69861.5144 E_angle  =    294677.2913 
E_dihed  =    141451.9908 E_impro  =      5862.3808 E_vdwl   =    -58457.1667 
E_coul   =   5690409.1147 E_long   =  -7403446.7190 Press    =      -204.4224 
Volume   =   8369117.1080 
---------------- Step      550 ----- CPU =     34.8681 (sec) ----------------
TotEng   =   -672495.2342 KinEng   =    583435.9300 Temp     =       301.3132 
PotEng   =  -1255931.1642 E_bond   =     68891.7601 E_angle  =    296625.6077 
E_dihed  =    140445.1910 E_impro  =      6460.0917 E_vdwl   =    -57235.1912 
E_coul   =   5692580.4722 E_long   =  -7403699.0957 Press    =       353.5501 
Volume   =   8368686.1996 
---------------- Step      600 ----- CPU =     38.0502 (sec) ----------------
TotEng   =   -670547.0419 KinEng   =    585277.2483 Temp     =       302.2642 
PotEng   =  -1255824.2902 E_bond   =     68016.7756 E_angle  =    297919.4740 
E_dihed  =    142091.1410 E_impro  =      6094.3207 E_vdwl   =    -59531.3658 
E_coul   =   5693320.2011 E_long   =  -7403734.8367 Press    =        82.0849 
Volume   =   8370833.5880 
---------------- Step      650 ----- CPU =     41.1717 (sec) ----------------
TotEng   =   -674882.4523 KinEng   =    582792.4833 Temp     =       300.9809 
PotEng   =  -1257674.9356 E_bond   =     68283.3237 E_angle  =    293737.2552 
E_dihed  =    141625.1308 E_impro  =      5700.8769 E_vdwl   =    -57421.2644 
E_coul   =   5694053.9808 E_long   =  -7403654.2385 Press    =      -168.2868 
Volume   =   8372997.0683 
---------------- Step      700 ----- CPU =     44.2998 (sec) ----------------
TotEng   =   -679160.1810 KinEng   =    580768.5608 Temp     =       299.9357 
PotEng   =  -1259928.7418 E_bond   =     66960.6814 E_angle  =    296267.0175 
E_dihed  =    141418.4929 E_impro  =      5681.1726 E_vdwl   =    -59706.5392 
E_coul   =   5693151.4047 E_long   =  -7403700.9717 Press    =       167.8927 
Volume   =   8373866.6836 
---------------- Step      750 ----- CPU =     47.4864 (sec) ----------------
TotEng   =   -679752.0368 KinEng   =    577837.5798 Temp     =       298.4220 
PotEng   =  -1257589.6166 E_bond   =     69012.1630 E_angle  =    296918.3442 
E_dihed  =    141993.2379 E_impro  =      5773.5717 E_vdwl   =    -57795.7309 
E_coul   =   5690379.7719 E_long   =  -7403870.9743 Press    =       -28.0135 
Volume   =   8372238.2915 
---------------- Step      800 ----- CPU =     50.6081 (sec) ----------------
TotEng   =   -677184.4580 KinEng   =    579372.4350 Temp     =       299.2147 
PotEng   =  -1256556.8930 E_bond   =     67819.9661 E_angle  =    298703.6812 
E_dihed  =    142411.7845 E_impro  =      6103.0816 E_vdwl   =    -57612.7903 
E_coul   =   5689655.1008 E_long   =  -7403637.7170 Press    =       -62.8510 
Volume   =   8370567.4309 
---------------- Step      850 ----- CPU =     53.7969 (sec) ----------------
TotEng   =   -673286.9249 KinEng   =    582337.9005 Temp     =       300.7462 
PotEng   =  -1255624.8254 E_bond   =     68583.8409 E_angle  =    297113.7437 
E_dihed  =    142043.2031 E_impro  =      5904.7736 E_vdwl   =    -55908.6479 
E_coul   =   5690305.0358 E_long   =  -7403666.7747 Press    =       351.4231 
Volume   =   8365279.7117 
---------------- Step      900 ----- CPU =     56.9234 (sec) ----------------
TotEng   =   -671941.7489 KinEng   =    582529.4933 Temp     =       300.8451 
PotEng   =  -1254471.2422 E_bond   =     68199.3562 E_angle  =    296995.4048 
E_dihed  =    142315.1348 E_impro  =      6175.9080 E_vdwl   =    -54988.0471 
E_coul   =   5690426.0985 E_long   =  -7403595.0973 Press    =       285.4494 
Volume   =   8362044.4836 
---------------- Step      950 ----- CPU =     60.1198 (sec) ----------------
TotEng   =   -673919.1596 KinEng   =    580431.0747 Temp     =       299.7614 
PotEng   =  -1254350.2343 E_bond   =     69104.7057 E_angle  =    298050.8725 
E_dihed  =    143226.6650 E_impro  =      6434.3285 E_vdwl   =    -57745.7417 
E_coul   =   5690127.2955 E_long   =  -7403548.3598 Press    =      -160.3686 
Volume   =   8362060.3679 
---------------- Step     1000 ----- CPU =     63.2499 (sec) ----------------
TotEng   =   -677507.4076 KinEng   =    579300.2554 Temp     =       299.1774 
PotEng   =  -1256807.6630 E_bond   =     69798.4261 E_angle  =    297147.0945 
E_dihed  =    142002.4770 E_impro  =      5920.5008 E_vdwl   =    -57280.6608 
E_coul   =   5689334.9235 E_long   =  -7403730.4243 Press    =      -133.6786 
Volume   =   8361615.6443 
---------------- Step     1050 ----- CPU =     66.4403 (sec) ----------------
TotEng   =   -678924.1389 KinEng   =    579514.1328 Temp     =       299.2878 
PotEng   =  -1258438.2717 E_bond   =     68921.3449 E_angle  =    297368.5851 
E_dihed  =    141681.7397 E_impro  =      6000.2317 E_vdwl   =    -57509.0842 
E_coul   =   5688775.5236 E_long   =  -7403676.6125 Press    =       -36.5820 
Volume   =   8361399.2918 
---------------- Step     1100 ----- CPU =     69.5744 (sec) ----------------
TotEng   =   -677923.7771 KinEng   =    580924.0805 Temp     =       300.0160 
PotEng   =  -1258847.8576 E_bond   =     69607.6823 E_angle  =    296304.5828 
E_dihed  =    141974.7147 E_impro  =      6190.9271 E_vdwl   =    -59348.1699 
E_coul   =   5690271.8664 E_long   =  -7403849.4610 Press    =      -140.9326 
Volume   =   8360796.5039 
---------------- Step     1150 ----- CPU =     72.7698 (sec) ----------------
TotEng   =   -676232.2235 KinEng   =    581933.9418 Temp     =       300.5375 
PotEng   =  -1258166.1653 E_bond   =     68792.9290 E_angle  =    296454.4230 
E_dihed  =    142530.5358 E_impro  =      5937.7468 E_vdwl   =    -56865.6010 
E_coul   =   5688728.1526 E_long   =  -7403744.3516 Press    =       126.1357 
Volume   =   8356956.6632 
---------------- Step     1200 ----- CPU =     75.9032 (sec) ----------------
TotEng   =   -675326.4400 KinEng   =    581974.4407 Temp     =       300.5584 
PotEng   =  -1257300.8807 E_bond   =     69904.5041 E_angle  =    295804.6201 
E_dihed  =    142299.2548 E_impro  =      5971.9306 E_vdwl   =    -56786.2476 
E_coul   =   5689297.9505 E_long   =  -7403792.8932 Press    =        32.0368 
Volume   =   8352393.6714 
---------------- Step     1250 ----- CPU =     79.0967 (sec) ----------------
TotEng   =   -676207.0506 KinEng   =    581020.3378 Temp     =       300.0657 
PotEng   =  -1257227.3884 E_bond   =     68948.6611 E_angle  =    296523.6664 
E_dihed  =    142133.6855 E_impro  =      6072.1178 E_vdwl   =    -56346.4443 
E_coul   =   5689280.1713 E_long   =  -7403839.2461 Press    =       166.3578 
Volume   =   8350528.3315 
---------------- Step     1300 ----- CPU =     82.2303 (sec) ----------------
TotEng   =   -677598.7802 KinEng   =    580594.1481 Temp     =       299.8456 
PotEng   =  -1258192.9283 E_bond   =     70038.1812 E_angle  =    296378.8978 
E_dihed  =    142427.1029 E_impro  =      6135.7890 E_vdwl   =    -58235.9601 
E_coul   =   5688744.7635 E_long   =  -7403681.7026 Press    =      -255.2555 
Volume   =   8350690.1237 
---------------- Step     1350 ----- CPU =     85.4260 (sec) ----------------
TotEng   =   -678121.0672 KinEng   =    579402.4353 Temp     =       299.2301 
PotEng   =  -1257523.5025 E_bond   =     69367.9539 E_angle  =    296791.9241 
E_dihed  =    142415.5483 E_impro  =      6054.3140 E_vdwl   =    -56570.9978 
E_coul   =   5688133.0659 E_long   =  -7403715.3110 Press    =       -75.6663 
Volume   =   8350929.3295 
---------------- Step     1400 ----- CPU =     88.5578 (sec) ----------------
TotEng   =   -677652.7373 KinEng   =    580156.9546 Temp     =       299.6198 
PotEng   =  -1257809.6919 E_bond   =     69590.1321 E_angle  =    296987.1148 
E_dihed  =    142313.7719 E_impro  =      6020.8234 E_vdwl   =    -56482.0708 
E_coul   =   5687480.0788 E_long   =  -7403719.5421 Press    =       -64.0392 
Volume   =   8351607.0326 
---------------- Step     1450 ----- CPU =     91.7524 (sec) ----------------
TotEng   =   -676825.4788 KinEng   =    581034.9035 Temp     =       300.0732 
PotEng   =  -1257860.3823 E_bond   =     69222.4399 E_angle  =    297107.2360 
E_dihed  =    142297.2628 E_impro  =      6038.7693 E_vdwl   =    -56528.9442 
E_coul   =   5687698.1373 E_long   =  -7403695.2835 Press    =        89.7763 
Volume   =   8351831.3554 
---------------- Step     1500 ----- CPU =     94.8864 (sec) ----------------
TotEng   =   -676558.2986 KinEng   =    581663.0137 Temp     =       300.3976 
PotEng   =  -1258221.3123 E_bond   =     69354.6143 E_angle  =    297152.1890 
E_dihed  =    142446.7388 E_impro  =      6098.4418 E_vdwl   =    -56685.3968 
E_coul   =   5687125.2722 E_long   =  -7403713.1716 Press    =        19.1124 
Volume   =   8352117.9476 
---------------- Step     1550 ----- CPU =     98.0803 (sec) ----------------
TotEng   =   -677283.3083 KinEng   =    581425.6899 Temp     =       300.2750 
PotEng   =  -1258708.9982 E_bond   =     68894.7218 E_angle  =    297846.7246 
E_dihed  =    141863.0272 E_impro  =      6046.5061 E_vdwl   =    -56694.6402 
E_coul   =   5687063.1255 E_long   =  -7403728.4632 Press    =        55.9700 
Volume   =   8352925.3253 
---------------- Step     1600 ----- CPU =    101.2177 (sec) ----------------
TotEng   =   -678705.8206 KinEng   =    580512.0750 Temp     =       299.8032 
PotEng   =  -1259217.8956 E_bond   =     69012.2279 E_angle  =    296390.0428 
E_dihed  =    141441.6613 E_impro  =      5822.8668 E_vdwl   =    -55722.1904 
E_coul   =   5687548.8611 E_long   =  -7403711.3651 Press    =       134.1288 
Volume   =   8354026.5117 
---------------- Step     1650 ----- CPU =    104.4087 (sec) ----------------
TotEng   =   -679595.0249 KinEng   =    578903.1344 Temp     =       298.9723 
PotEng   =  -1258498.1593 E_bond   =     69521.8832 E_angle  =    296911.6716 
E_dihed  =    141955.6917 E_impro  =      6015.2645 E_vdwl   =    -56930.3103 
E_coul   =   5687768.2405 E_long   =  -7403740.6005 Press    =       -52.2718 
Volume   =   8355784.9315 
---------------- Step     1700 ----- CPU =    107.5377 (sec) ----------------
TotEng   =   -678467.3275 KinEng   =    580224.0019 Temp     =       299.6544 
PotEng   =  -1258691.3294 E_bond   =     69423.8514 E_angle  =    297407.0414 
E_dihed  =    142037.4369 E_impro  =      6061.1923 E_vdwl   =    -57514.8212 
E_coul   =   5687572.8740 E_long   =  -7403678.9042 Press    =       -24.4506 
Volume   =   8357235.2110 
---------------- Step     1750 ----- CPU =    110.7313 (sec) ----------------
TotEng   =   -676328.0960 KinEng   =    581816.1355 Temp     =       300.4767 
PotEng   =  -1258144.2315 E_bond   =     69116.0957 E_angle  =    297663.4582 
E_dihed  =    142140.8310 E_impro  =      6038.5616 E_vdwl   =    -57239.2234 
E_coul   =   5687875.7122 E_long   =  -7403739.6669 Press    =       -10.6274 
Volume   =   8357291.7604 
---------------- Step     1800 ----- CPU =    113.8620 (sec) ----------------
TotEng   =   -675474.0003 KinEng   =    581466.1643 Temp     =       300.2960 
PotEng   =  -1256940.1646 E_bond   =     69349.5664 E_angle  =    297584.4725 
E_dihed  =    142501.2127 E_impro  =      6128.7693 E_vdwl   =    -55955.6581 
E_coul   =   5687126.3610 E_long   =  -7403674.8884 Press    =       -29.7721 
Volume   =   8356643.5445 
---------------- Step     1850 ----- CPU =    116.9897 (sec) ----------------
TotEng   =   -676423.7656 KinEng   =    581333.0722 Temp     =       300.2272 
PotEng   =  -1257756.8378 E_bond   =     69383.5544 E_angle  =    297503.5511 
E_dihed  =    141979.2074 E_impro  =      6002.9650 E_vdwl   =    -57428.5715 
E_coul   =   5688581.5085 E_long   =  -7403779.0526 Press    =        58.4823 
Volume   =   8356897.9938 
---------------- Step     1900 ----- CPU =    120.1790 (sec) ----------------
TotEng   =   -678457.0589 KinEng   =    579289.0423 Temp     =       299.1716 
PotEng   =  -1257746.1012 E_bond   =     69182.0660 E_angle  =    297383.5530 
E_dihed  =    142035.3095 E_impro  =      6083.7286 E_vdwl   =    -57493.1257 
E_coul   =   5688699.3096 E_long   =  -7403636.9422 Press    =        -1.2963 
Volume   =   8357271.3710 
---------------- Step     1950 ----- CPU =    123.3097 (sec) ----------------
TotEng   =   -679395.4741 KinEng   =    580306.2304 Temp     =       299.6969 
PotEng   =  -1259701.7045 E_bond   =     69389.1371 E_angle  =    297487.8114 
E_dihed  =    141666.0236 E_impro  =      5989.3917 E_vdwl   =    -56044.9436 
E_coul   =   5685522.1789 E_long   =  -7403711.3036 Press    =       -50.3936 
Volume   =   8357619.8542 
---------------- Step     2000 ----- CPU =    126.4378 (sec) ----------------
TotEng   =   -679036.1815 KinEng   =    581144.2382 Temp     =       300.1297 
PotEng   =  -1260180.4197 E_bond   =     69018.1140 E_angle  =    296817.6289 
E_dihed  =    142010.3525 E_impro  =      5970.1297 E_vdwl   =    -56281.2185 
E_coul   =   5686002.4241 E_long   =  -7403717.8505 Press    =       -81.7210 
Volume   =   8358412.1642 
---------------- Step     2050 ----- CPU =    129.6381 (sec) ----------------
TotEng   =   -678263.9872 KinEng   =    580728.8958 Temp     =       299.9152 
PotEng   =  -1258992.8830 E_bond   =     69133.0886 E_angle  =    297080.8851 
E_dihed  =    142177.4926 E_impro  =      6080.2209 E_vdwl   =    -55968.5178 
E_coul   =   5686214.6630 E_long   =  -7403710.7154 Press    =       -66.3872 
Volume   =   8357675.5492 
---------------- Step     2100 ----- CPU =    132.7777 (sec) ----------------
TotEng   =   -677638.7893 KinEng   =    580497.2835 Temp     =       299.7956 
PotEng   =  -1258136.0728 E_bond   =     69352.2220 E_angle  =    297560.4307 
E_dihed  =    142560.7088 E_impro  =      6075.1526 E_vdwl   =    -55421.9077 
E_coul   =   5685531.0161 E_long   =  -7403793.6953 Press    =       116.8836 
Volume   =   8356489.6999 
---------------- Step     2150 ----- CPU =    135.9781 (sec) ----------------
TotEng   =   -677537.0363 KinEng   =    581328.3002 Temp     =       300.2248 
PotEng   =  -1258865.3365 E_bond   =     69519.7792 E_angle  =    297555.3846 
E_dihed  =    141907.1205 E_impro  =      6093.7859 E_vdwl   =    -56743.6944 
E_coul   =   5686540.3737 E_long   =  -7403738.0860 Press    =       -50.9791 
Volume   =   8356045.0597 
---------------- Step     2200 ----- CPU =    139.1191 (sec) ----------------
TotEng   =   -677993.8082 KinEng   =    581494.0081 Temp     =       300.3103 
PotEng   =  -1259487.8164 E_bond   =     69397.2298 E_angle  =    297173.7640 
E_dihed  =    142215.3318 E_impro  =      6100.0138 E_vdwl   =    -56799.2064 
E_coul   =   5686122.1859 E_long   =  -7403697.1354 Press    =      -102.8833 
Volume   =   8354951.5693 
---------------- Step     2250 ----- CPU =    142.3238 (sec) ----------------
TotEng   =   -678718.1661 KinEng   =    579942.1650 Temp     =       299.5089 
PotEng   =  -1258660.3311 E_bond   =     69337.3839 E_angle  =    297264.5754 
E_dihed  =    142125.2814 E_impro  =      6176.5256 E_vdwl   =    -56090.4670 
E_coul   =   5686229.8554 E_long   =  -7403703.4858 Press    =       -23.6462 
Volume   =   8353612.9594 
---------------- Step     2300 ----- CPU =    145.4646 (sec) ----------------
TotEng   =   -678521.1603 KinEng   =    580306.2178 Temp     =       299.6969 
PotEng   =  -1258827.3782 E_bond   =     69465.6964 E_angle  =    297933.0130 
E_dihed  =    142166.7018 E_impro  =      6008.0450 E_vdwl   =    -55581.2600 
E_coul   =   5684954.2435 E_long   =  -7403773.8179 Press    =       -61.4148 
Volume   =   8352470.3750 
---------------- Step     2350 ----- CPU =    148.6132 (sec) ----------------
TotEng   =   -677969.1961 KinEng   =    581690.4836 Temp     =       300.4118 
PotEng   =  -1259659.6797 E_bond   =     69251.1569 E_angle  =    297772.3307 
E_dihed  =    141952.7316 E_impro  =      6090.2080 E_vdwl   =    -56032.3325 
E_coul   =   5685046.5938 E_long   =  -7403740.3684 Press    =       -35.1819 
Volume   =   8351500.4893 
---------------- Step     2400 ----- CPU =    151.8272 (sec) ----------------
TotEng   =   -678107.1498 KinEng   =    581267.0038 Temp     =       300.1931 
PotEng   =  -1259374.1536 E_bond   =     69111.9323 E_angle  =    297245.1742 
E_dihed  =    142210.5094 E_impro  =      5947.1659 E_vdwl   =    -57305.1623 
E_coul   =   5687168.6674 E_long   =  -7403752.4404 Press    =        -7.4924 
Volume   =   8350811.6614 
---------------- Step     2450 ----- CPU =    154.9801 (sec) ----------------
TotEng   =   -678858.0907 KinEng   =    580955.0042 Temp     =       300.0320 
PotEng   =  -1259813.0950 E_bond   =     69344.4532 E_angle  =    297608.7553 
E_dihed  =    142340.1757 E_impro  =      5959.8836 E_vdwl   =    -57073.8361 
E_coul   =   5685788.6013 E_long   =  -7403781.1279 Press    =       -95.6102 
Volume   =   8350281.3984 
---------------- Step     2500 ----- CPU =    158.1993 (sec) ----------------
TotEng   =   -679668.0335 KinEng   =    580155.3351 Temp     =       299.6190 
PotEng   =  -1259823.3686 E_bond   =     69207.7217 E_angle  =    297667.6368 
E_dihed  =    142172.4792 E_impro  =      5983.5252 E_vdwl   =    -57393.8884 
E_coul   =   5686299.4608 E_long   =  -7403760.3039 Press    =        14.0150 
Volume   =   8348102.1489 
---------------- Step     2550 ----- CPU =    161.3498 (sec) ----------------
TotEng   =   -679907.9049 KinEng   =    580460.2700 Temp     =       299.7765 
PotEng   =  -1260368.1749 E_bond   =     69775.5454 E_angle  =    297354.8797 
E_dihed  =    142081.6212 E_impro  =      6036.5070 E_vdwl   =    -56495.4388 
E_coul   =   5684660.4249 E_long   =  -7403781.7143 Press    =       -53.5919 
Volume   =   8346347.8385 
---------------- Step     2600 ----- CPU =    164.4939 (sec) ----------------
TotEng   =   -679273.7971 KinEng   =    580798.1373 Temp     =       299.9510 
PotEng   =  -1260071.9344 E_bond   =     69101.1085 E_angle  =    297527.9968 
E_dihed  =    142149.1351 E_impro  =      6053.7645 E_vdwl   =    -55886.3992 
E_coul   =   5684830.0627 E_long   =  -7403847.6027 Press    =        10.3743 
Volume   =   8344507.0794 
---------------- Step     2650 ----- CPU =    167.6321 (sec) ----------------
TotEng   =   -678306.4315 KinEng   =    581901.2159 Temp     =       300.5206 
PotEng   =  -1260207.6474 E_bond   =     69416.6445 E_angle  =    297090.2716 
E_dihed  =    142471.2352 E_impro  =      5997.7096 E_vdwl   =    -56118.1751 
E_coul   =   5684737.3624 E_long   =  -7403802.6956 Press    =       -45.7319 
Volume   =   8343386.9576 
---------------- Step     2700 ----- CPU =    170.8223 (sec) ----------------
TotEng   =   -678414.4986 KinEng   =    580223.1922 Temp     =       299.6540 
PotEng   =  -1258637.6908 E_bond   =     69393.2818 E_angle  =    298280.7412 
E_dihed  =    142034.1293 E_impro  =      6006.5106 E_vdwl   =    -55889.6875 
E_coul   =   5685292.8287 E_long   =  -7403755.4949 Press    =        49.2239 
Volume   =   8342643.1622 
