LAMMPS (7 Jan 2022)
  using 1 OpenMP thread(s) per MPI task
Reading data file ...
  orthogonal box = (-27.5 -38.5 -36.3646) to (27.5 38.5 36.3615)
  2 by 4 by 4 MPI processor grid
  reading atoms ...
  32000 atoms
  reading velocities ...
  32000 velocities
  scanning bonds ...
  4 = max bonds/atom
  scanning angles ...
  8 = max angles/atom
  scanning dihedrals ...
  18 = max dihedrals/atom
  scanning impropers ...
  2 = max impropers/atom
  reading bonds ...
  27723 bonds
  reading angles ...
  40467 angles
  reading dihedrals ...
  56829 dihedrals
  reading impropers ...
  1034 impropers
Finding 1-2 1-3 1-4 neighbors ...
  special bond factors lj:    0        0        0       
  special bond factors coul:  0        0        0       
     4 = max # of 1-2 neighbors
    12 = max # of 1-3 neighbors
    24 = max # of 1-4 neighbors
    26 = max # of special neighbors
  special bonds CPU = 0.004 seconds
  read_data CPU = 0.244 seconds
Finding SHAKE clusters ...
    1617 = # of size 2 clusters
    3633 = # of size 3 clusters
     747 = # of size 4 clusters
    4233 = # of frozen angles
  find clusters CPU = 0.003 seconds
PPPM initialization ...
  using 12-bit tables for long-range coulomb (../kspace.cpp:340)
  G vector (1/distance) = 0.25235202
  grid = 24 30 30
  stencil order = 7
  estimated absolute RMS force accuracy = 0.029803316
  estimated relative force accuracy = 8.9751802e-05
  using single precision MKL FFT
  3d grid and FFT values/proc = 4275 768
----------------------------------------------------------
Using INTEL Package without Coprocessor.
Compiler: Intel Classic C++ 20.21.5 / Intel(R) C++ g++ 9.3 mode
SIMD compiler directives: Enabled
Precision: mixed
----------------------------------------------------------
  generated 2278 of 2278 mixed pair_coeff terms from arithmetic mixing rule
Neighbor list info ...
  update every 1 steps, delay 5 steps, check yes
  max neighbors/atom: 2000, page size: 100000
  master list distance cutoff = 12
  ghost atom cutoff = 12
  binsize = 6, bins = 10 13 13
  1 neighbor lists, perpetual/occasional/extra = 1 0 0
  (1) pair lj/charmm/coul/long/intel, perpetual
      attributes: half, newton on, intel
      pair build: half/bin/newton/intel
      stencil: half/bin/3d
      bin: intel
Setting up Verlet run ...
  Unit style    : real
  Current step  : 0
  Time step     : 2
Per MPI rank memory allocation (min/avg/max) = 27.33 | 27.91 | 28.51 Mbytes
---------------- Step        0 ----- CPU =      0.0000 (sec) ----------------
TotEng   =    -25358.1687 KinEng   =     21444.8313 Temp     =       299.0397 
PotEng   =    -46803.0000 E_bond   =      2537.9949 E_angle  =     10921.3721 
E_dihed  =      5211.7865 E_impro  =       213.5135 E_vdwl   =     -2307.8639 
E_coul   =    210834.7641 E_long   =   -274214.5673 Press    =      -148.7000 
Volume   =    307995.0335 
---------------- Step       50 ----- CPU =      0.1798 (sec) ----------------
TotEng   =    -25332.1386 KinEng   =     21500.5244 Temp     =       299.8163 
PotEng   =    -46832.6630 E_bond   =      2471.7201 E_angle  =     10836.5616 
E_dihed  =      5239.6301 E_impro  =       227.1125 E_vdwl   =     -1993.0575 
E_coul   =    210607.0429 E_long   =   -274221.6726 Press    =       238.8220 
Volume   =    308031.9401 
---------------- Step      100 ----- CPU =      0.3570 (sec) ----------------
TotEng   =    -25292.3930 KinEng   =     21588.2693 Temp     =       301.0399 
PotEng   =    -46880.6623 E_bond   =      2567.8468 E_angle  =     10781.8015 
E_dihed  =      5198.6606 E_impro  =       216.7487 E_vdwl   =     -1899.0460 
E_coul   =    210469.7885 E_long   =   -274216.4626 Press    =        14.2969 
Volume   =    308135.3254 
---------------- Step      150 ----- CPU =      0.5331 (sec) ----------------
TotEng   =    -25260.2082 KinEng   =     21534.2405 Temp     =       300.2865 
PotEng   =    -46794.4487 E_bond   =      2556.6744 E_angle  =     10854.0652 
E_dihed  =      5264.4287 E_impro  =       202.9948 E_vdwl   =     -2074.3107 
E_coul   =    210608.0970 E_long   =   -274206.3981 Press    =       243.8704 
Volume   =    308518.6139 
---------------- Step      200 ----- CPU =      0.7057 (sec) ----------------
TotEng   =    -25078.5937 KinEng   =     21540.5269 Temp     =       300.3741 
PotEng   =    -46619.1205 E_bond   =      2489.3653 E_angle  =     11075.6033 
E_dihed  =      5221.5606 E_impro  =       232.4373 E_vdwl   =     -2148.4094 
E_coul   =    210715.6741 E_long   =   -274205.3517 Press    =        41.0701 
Volume   =    308999.3862 
---------------- Step      250 ----- CPU =      0.8812 (sec) ----------------
TotEng   =    -24960.1512 KinEng   =     21533.4085 Temp     =       300.2748 
PotEng   =    -46493.5597 E_bond   =      2541.5632 E_angle  =     11095.6692 
E_dihed  =      5245.7995 E_impro  =       213.6286 E_vdwl   =     -2162.8868 
E_coul   =    210795.5815 E_long   =   -274222.9149 Press    =      -154.1134 
Volume   =    309392.6155 
---------------- Step      300 ----- CPU =      1.0530 (sec) ----------------
TotEng   =    -25026.6516 KinEng   =     21523.8876 Temp     =       300.1421 
PotEng   =    -46550.5392 E_bond   =      2560.7574 E_angle  =     10926.4804 
E_dihed  =      5221.3650 E_impro  =       224.1549 E_vdwl   =     -2166.1988 
E_coul   =    210890.8245 E_long   =   -274207.9226 Press    =      -380.5022 
Volume   =    309705.8634 
---------------- Step      350 ----- CPU =      1.2286 (sec) ----------------
TotEng   =    -25142.1498 KinEng   =     21590.0535 Temp     =       301.0647 
PotEng   =    -46732.2033 E_bond   =      2580.3645 E_angle  =     10959.2575 
E_dihed  =      5251.2102 E_impro  =       209.3138 E_vdwl   =     -2029.6492 
E_coul   =    210520.4583 E_long   =   -274223.1584 Press    =      -321.1141 
Volume   =    309849.0628 
---------------- Step      400 ----- CPU =      1.4002 (sec) ----------------
TotEng   =    -25285.1007 KinEng   =     21409.8507 Temp     =       298.5519 
PotEng   =    -46694.9514 E_bond   =      2541.4113 E_angle  =     10921.5938 
E_dihed  =      5216.0457 E_impro  =       215.9423 E_vdwl   =     -2012.3340 
E_coul   =    210637.2522 E_long   =   -274214.8629 Press    =       244.6135 
Volume   =    309901.0069 
---------------- Step      450 ----- CPU =      1.5738 (sec) ----------------
TotEng   =    -25318.8859 KinEng   =     21463.5698 Temp     =       299.3010 
PotEng   =    -46782.4556 E_bond   =      2495.6108 E_angle  =     10919.2628 
E_dihed  =      5272.4886 E_impro  =       222.4637 E_vdwl   =     -2169.7709 
E_coul   =    210690.4576 E_long   =   -274212.9682 Press    =       154.2942 
Volume   =    310009.7454 
---------------- Step      500 ----- CPU =      1.7505 (sec) ----------------
TotEng   =    -25135.7506 KinEng   =     21522.4446 Temp     =       300.1220 
PotEng   =    -46658.1952 E_bond   =      2580.7954 E_angle  =     10920.8600 
E_dihed  =      5233.2872 E_impro  =       221.4715 E_vdwl   =     -2056.5884 
E_coul   =    210656.4052 E_long   =   -274214.4262 Press    =      -112.3700 
Volume   =    310080.0296 
---------------- Step      550 ----- CPU =      1.9243 (sec) ----------------
TotEng   =    -24970.1995 KinEng   =     21608.4274 Temp     =       301.3210 
PotEng   =    -46578.6269 E_bond   =      2556.1685 E_angle  =     10956.0150 
E_dihed  =      5205.9418 E_impro  =       236.0703 E_vdwl   =     -2027.3434 
E_coul   =    210708.1046 E_long   =   -274213.5837 Press    =       369.7659 
Volume   =    310157.6665 
---------------- Step      600 ----- CPU =      2.0997 (sec) ----------------
TotEng   =    -24910.8736 KinEng   =     21611.3684 Temp     =       301.3620 
PotEng   =    -46522.2420 E_bond   =      2512.0650 E_angle  =     10977.7718 
E_dihed  =      5281.1031 E_impro  =       227.1337 E_vdwl   =     -2160.2370 
E_coul   =    210859.1684 E_long   =   -274219.2471 Press    =       140.3855 
Volume   =    310390.6053 
---------------- Step      650 ----- CPU =      2.2719 (sec) ----------------
TotEng   =    -24977.6677 KinEng   =     21603.8956 Temp     =       301.2578 
PotEng   =    -46581.5632 E_bond   =      2513.3195 E_angle  =     10901.3831 
E_dihed  =      5245.8738 E_impro  =       211.2243 E_vdwl   =     -2180.4515 
E_coul   =    210939.6470 E_long   =   -274212.5596 Press    =      -335.1327 
Volume   =    310636.9686 
---------------- Step      700 ----- CPU =      2.4486 (sec) ----------------
TotEng   =    -25026.3040 KinEng   =     21506.3806 Temp     =       299.8980 
PotEng   =    -46532.6846 E_bond   =      2516.5043 E_angle  =     10989.3171 
E_dihed  =      5252.8424 E_impro  =       211.8862 E_vdwl   =     -2340.2416 
E_coul   =    211058.0816 E_long   =   -274221.0746 Press    =         2.9351 
Volume   =    310663.1866 
---------------- Step      750 ----- CPU =      2.6212 (sec) ----------------
TotEng   =    -24983.5663 KinEng   =     21512.6544 Temp     =       299.9854 
PotEng   =    -46496.2207 E_bond   =      2582.6813 E_angle  =     11029.9452 
E_dihed  =      5279.4590 E_impro  =       212.4254 E_vdwl   =     -2168.1422 
E_coul   =    210773.8721 E_long   =   -274206.4614 Press    =        36.2700 
Volume   =    310435.6173 
---------------- Step      800 ----- CPU =      2.7924 (sec) ----------------
TotEng   =    -24932.8118 KinEng   =     21604.9068 Temp     =       301.2719 
PotEng   =    -46537.7185 E_bond   =      2529.8940 E_angle  =     11052.5380 
E_dihed  =      5290.2414 E_impro  =       221.4173 E_vdwl   =     -2211.3691 
E_coul   =    210788.6296 E_long   =   -274209.0698 Press    =      -304.1393 
Volume   =    310198.7519 
---------------- Step      850 ----- CPU =      2.9651 (sec) ----------------
TotEng   =    -24981.2083 KinEng   =     21571.6996 Temp     =       300.8088 
PotEng   =    -46552.9079 E_bond   =      2548.8746 E_angle  =     11017.8793 
E_dihed  =      5261.6112 E_impro  =       214.7775 E_vdwl   =     -2045.9776 
E_coul   =    210666.4904 E_long   =   -274216.5633 Press    =       366.8321 
Volume   =    309800.6263 
---------------- Step      900 ----- CPU =      3.1437 (sec) ----------------
TotEng   =    -25116.7009 KinEng   =     21472.9299 Temp     =       299.4315 
PotEng   =    -46589.6308 E_bond   =      2526.6961 E_angle  =     10921.6181 
E_dihed  =      5239.2645 E_impro  =       214.7505 E_vdwl   =     -2022.2365 
E_coul   =    210738.5107 E_long   =   -274208.2342 Press    =       328.3820 
Volume   =    309385.2727 
---------------- Step      950 ----- CPU =      3.3126 (sec) ----------------
TotEng   =    -25074.1482 KinEng   =     21472.8946 Temp     =       299.4310 
PotEng   =    -46547.0428 E_bond   =      2580.4347 E_angle  =     10932.1830 
E_dihed  =      5256.2564 E_impro  =       236.1486 E_vdwl   =     -2053.6890 
E_coul   =    210723.8267 E_long   =   -274222.2032 Press    =        -2.8788 
Volume   =    309262.2644 
---------------- Step     1000 ----- CPU =      3.4815 (sec) ----------------
TotEng   =    -25059.5975 KinEng   =     21570.8648 Temp     =       300.7972 
PotEng   =    -46630.4623 E_bond   =      2585.1444 E_angle  =     11038.0670 
E_dihed  =      5243.8745 E_impro  =       215.6534 E_vdwl   =     -2000.9049 
E_coul   =    210499.4266 E_long   =   -274211.7234 Press    =       122.7748 
Volume   =    309353.0680 
---------------- Step     1050 ----- CPU =      3.6422 (sec) ----------------
TotEng   =    -25109.6593 KinEng   =     21473.3704 Temp     =       299.4376 
PotEng   =    -46583.0297 E_bond   =      2555.8411 E_angle  =     11002.4149 
E_dihed  =      5255.2108 E_impro  =       234.5071 E_vdwl   =     -2104.3698 
E_coul   =    210689.3749 E_long   =   -274216.0087 Press    =      -234.4084 
Volume   =    309616.1160 
---------------- Step     1100 ----- CPU =      3.7840 (sec) ----------------
TotEng   =    -25105.5488 KinEng   =     21520.8124 Temp     =       300.0992 
PotEng   =    -46626.3612 E_bond   =      2564.8130 E_angle  =     10953.9859 
E_dihed  =      5289.7308 E_impro  =       221.0297 E_vdwl   =     -2204.7912 
E_coul   =    210765.8756 E_long   =   -274217.0049 Press    =       -98.1976 
Volume   =    309820.5421 
---------------- Step     1150 ----- CPU =      3.9240 (sec) ----------------
TotEng   =    -24975.3632 KinEng   =     21495.4793 Temp     =       299.7459 
PotEng   =    -46470.8425 E_bond   =      2544.6552 E_angle  =     11076.1252 
E_dihed  =      5318.9977 E_impro  =       210.0090 E_vdwl   =     -2091.0702 
E_coul   =    210681.7089 E_long   =   -274211.2683 Press    =       138.2253 
Volume   =    309789.2378 
---------------- Step     1200 ----- CPU =      4.0621 (sec) ----------------
TotEng   =    -24884.0360 KinEng   =     21722.5174 Temp     =       302.9119 
PotEng   =    -46606.5534 E_bond   =      2595.0845 E_angle  =     10939.3153 
E_dihed  =      5276.8824 E_impro  =       229.4168 E_vdwl   =     -2157.2713 
E_coul   =    210715.9712 E_long   =   -274205.9523 Press    =      -127.9140 
Volume   =    309649.6626 
---------------- Step     1250 ----- CPU =      4.2037 (sec) ----------------
TotEng   =    -24940.5891 KinEng   =     21655.4544 Temp     =       301.9767 
PotEng   =    -46596.0435 E_bond   =      2505.6893 E_angle  =     11007.6180 
E_dihed  =      5263.1242 E_impro  =       217.3940 E_vdwl   =     -2001.4965 
E_coul   =    210617.4728 E_long   =   -274205.8452 Press    =       346.8666 
Volume   =    309586.2485 
---------------- Step     1300 ----- CPU =      4.3424 (sec) ----------------
TotEng   =    -24994.3468 KinEng   =     21535.8815 Temp     =       300.3093 
PotEng   =    -46530.2283 E_bond   =      2594.5529 E_angle  =     10949.2530 
E_dihed  =      5229.4786 E_impro  =       226.2782 E_vdwl   =     -2099.7308 
E_coul   =    210779.1677 E_long   =   -274209.2279 Press    =      -158.2882 
Volume   =    309620.7939 
---------------- Step     1350 ----- CPU =      4.4830 (sec) ----------------
TotEng   =    -25091.0776 KinEng   =     21375.2898 Temp     =       298.0699 
PotEng   =    -46466.3673 E_bond   =      2529.8086 E_angle  =     11043.7294 
E_dihed  =      5207.2196 E_impro  =       215.0092 E_vdwl   =     -2063.6473 
E_coul   =    210811.7279 E_long   =   -274210.2147 Press    =      -174.0684 
Volume   =    309695.5533 
---------------- Step     1400 ----- CPU =      4.6214 (sec) ----------------
TotEng   =    -25064.2168 KinEng   =     21400.4582 Temp     =       298.4209 
PotEng   =    -46464.6749 E_bond   =      2524.4472 E_angle  =     11019.5914 
E_dihed  =      5258.5239 E_impro  =       222.0754 E_vdwl   =     -2104.1774 
E_coul   =    210823.3231 E_long   =   -274208.4585 Press    =        14.8019 
Volume   =    309815.9237 
---------------- Step     1450 ----- CPU =      4.7602 (sec) ----------------
TotEng   =    -24962.3847 KinEng   =     21643.7759 Temp     =       301.8139 
PotEng   =    -46606.1605 E_bond   =      2537.7205 E_angle  =     11083.7804 
E_dihed  =      5237.4554 E_impro  =       201.0323 E_vdwl   =     -2101.1200 
E_coul   =    210659.7343 E_long   =   -274224.7635 Press    =      -320.8579 
Volume   =    309948.7006 
---------------- Step     1500 ----- CPU =      4.9017 (sec) ----------------
TotEng   =    -25003.9589 KinEng   =     21452.4117 Temp     =       299.1454 
PotEng   =    -46456.3705 E_bond   =      2491.6984 E_angle  =     11033.4391 
E_dihed  =      5256.1417 E_impro  =       234.6829 E_vdwl   =     -2075.4025 
E_coul   =    210820.2653 E_long   =   -274217.1954 Press    =       148.9879 
Volume   =    310016.8179 
---------------- Step     1550 ----- CPU =      5.0405 (sec) ----------------
TotEng   =    -25125.1903 KinEng   =     21509.8053 Temp     =       299.9457 
PotEng   =    -46634.9955 E_bond   =      2581.2413 E_angle  =     10964.3649 
E_dihed  =      5237.6482 E_impro  =       220.8456 E_vdwl   =     -2025.8040 
E_coul   =    210592.9168 E_long   =   -274206.2083 Press    =       180.3928 
Volume   =    310030.9626 
---------------- Step     1600 ----- CPU =      5.1793 (sec) ----------------
TotEng   =    -25247.6750 KinEng   =     21384.0225 Temp     =       298.1917 
PotEng   =    -46631.6976 E_bond   =      2588.6801 E_angle  =     10951.9759 
E_dihed  =      5206.0116 E_impro  =       213.4360 E_vdwl   =     -1963.7749 
E_coul   =    210594.3016 E_long   =   -274222.3279 Press    =       149.1507 
Volume   =    310008.9894 
---------------- Step     1650 ----- CPU =      5.3185 (sec) ----------------
TotEng   =    -25164.2018 KinEng   =     21500.5453 Temp     =       299.8166 
PotEng   =    -46664.7471 E_bond   =      2552.0687 E_angle  =     11091.5798 
E_dihed  =      5213.0804 E_impro  =       218.0778 E_vdwl   =     -1944.4373 
E_coul   =    210408.8460 E_long   =   -274203.9625 Press    =       416.1963 
Volume   =    309969.0846 
---------------- Step     1700 ----- CPU =      5.4572 (sec) ----------------
TotEng   =    -24930.6096 KinEng   =     21531.1885 Temp     =       300.2439 
PotEng   =    -46461.7981 E_bond   =      2605.2635 E_angle  =     11110.4042 
E_dihed  =      5195.8224 E_impro  =       234.1612 E_vdwl   =     -2070.0154 
E_coul   =    210681.0355 E_long   =   -274218.4696 Press    =       -74.0266 
Volume   =    309944.5485 
---------------- Step     1750 ----- CPU =      5.5974 (sec) ----------------
TotEng   =    -24767.2686 KinEng   =     21575.5533 Temp     =       300.8625 
PotEng   =    -46342.8219 E_bond   =      2593.5406 E_angle  =     11042.9089 
E_dihed  =      5230.7292 E_impro  =       230.5342 E_vdwl   =     -2031.4140 
E_coul   =    210815.5430 E_long   =   -274224.6636 Press    =      -320.3109 
Volume   =    310091.5905 
---------------- Step     1800 ----- CPU =      5.7395 (sec) ----------------
TotEng   =    -24814.1387 KinEng   =     21605.2322 Temp     =       301.2764 
PotEng   =    -46419.3709 E_bond   =      2643.1822 E_angle  =     11052.1245 
E_dihed  =      5231.4300 E_impro  =       221.2179 E_vdwl   =     -1941.8542 
E_coul   =    210576.6041 E_long   =   -274202.0754 Press    =        80.1238 
Volume   =    310358.3322 
---------------- Step     1850 ----- CPU =      5.8808 (sec) ----------------
TotEng   =    -25097.6802 KinEng   =     21484.5998 Temp     =       299.5942 
PotEng   =    -46582.2800 E_bond   =      2502.7291 E_angle  =     10946.3809 
E_dihed  =      5309.0892 E_impro  =       246.0340 E_vdwl   =     -1937.3007 
E_coul   =    210572.0704 E_long   =   -274221.2828 Press    =       298.0377 
Volume   =    310754.1832 
---------------- Step     1900 ----- CPU =      6.0223 (sec) ----------------
TotEng   =    -25299.0606 KinEng   =     21217.6500 Temp     =       295.8717 
PotEng   =    -46516.7106 E_bond   =      2569.0141 E_angle  =     10974.8474 
E_dihed  =      5240.8363 E_impro  =       232.8952 E_vdwl   =     -2197.8325 
E_coul   =    210879.3587 E_long   =   -274215.8297 Press    =      -101.0202 
Volume   =    311186.4811 
---------------- Step     1950 ----- CPU =      6.1624 (sec) ----------------
TotEng   =    -25153.3020 KinEng   =     21406.0245 Temp     =       298.4985 
PotEng   =    -46559.3265 E_bond   =      2574.1891 E_angle  =     10987.9653 
E_dihed  =      5216.9338 E_impro  =       213.7487 E_vdwl   =     -2057.3379 
E_coul   =    210714.7637 E_long   =   -274209.5892 Press    =      -339.9402 
Volume   =    311274.4723 
---------------- Step     2000 ----- CPU =      6.3079 (sec) ----------------
TotEng   =    -24870.6805 KinEng   =     21664.9484 Temp     =       302.1091 
PotEng   =    -46535.6289 E_bond   =      2521.1911 E_angle  =     11119.6480 
E_dihed  =      5217.8167 E_impro  =       229.9391 E_vdwl   =     -2192.4006 
E_coul   =    210785.3862 E_long   =   -274217.2093 Press    =       120.4259 
Volume   =    311144.3234 
---------------- Step     2050 ----- CPU =      6.4475 (sec) ----------------
TotEng   =    -24792.7726 KinEng   =     21580.7765 Temp     =       300.9354 
PotEng   =    -46373.5491 E_bond   =      2579.9037 E_angle  =     11060.6059 
E_dihed  =      5215.7369 E_impro  =       219.3785 E_vdwl   =     -1845.5154 
E_coul   =    210601.1943 E_long   =   -274204.8529 Press    =       141.7234 
Volume   =    310931.1314 
---------------- Step     2100 ----- CPU =      6.5887 (sec) ----------------
TotEng   =    -24930.0536 KinEng   =     21598.9182 Temp     =       301.1884 
PotEng   =    -46528.9719 E_bond   =      2585.3173 E_angle  =     10993.1985 
E_dihed  =      5271.4275 E_impro  =       214.1832 E_vdwl   =     -1920.7455 
E_coul   =    210548.5279 E_long   =   -274220.8808 Press    =        37.7741 
Volume   =    310582.7267 
---------------- Step     2150 ----- CPU =      6.7278 (sec) ----------------
TotEng   =    -25222.0420 KinEng   =     21474.2632 Temp     =       299.4501 
PotEng   =    -46696.3052 E_bond   =      2544.9514 E_angle  =     11032.7863 
E_dihed  =      5225.2847 E_impro  =       235.9747 E_vdwl   =     -2051.8770 
E_coul   =    210517.0191 E_long   =   -274200.4443 Press    =       160.6470 
Volume   =    310370.7385 
---------------- Step     2200 ----- CPU =      6.8715 (sec) ----------------
TotEng   =    -25350.2317 KinEng   =     21355.2705 Temp     =       297.7908 
PotEng   =    -46705.5022 E_bond   =      2562.1662 E_angle  =     10958.2720 
E_dihed  =      5244.0271 E_impro  =       219.7961 E_vdwl   =     -2033.8820 
E_coul   =    210566.2312 E_long   =   -274222.1125 Press    =        53.0780 
Volume   =    310131.3394 
---------------- Step     2250 ----- CPU =      7.0109 (sec) ----------------
TotEng   =    -25219.9054 KinEng   =     21513.8318 Temp     =       300.0019 
PotEng   =    -46733.7372 E_bond   =      2560.5916 E_angle  =     10970.2787 
E_dihed  =      5256.6097 E_impro  =       212.7186 E_vdwl   =     -2232.8293 
E_coul   =    210715.8344 E_long   =   -274216.9409 Press    =        10.4975 
Volume   =    309932.0006 
---------------- Step     2300 ----- CPU =      7.1538 (sec) ----------------
TotEng   =    -25040.2964 KinEng   =     21580.1339 Temp     =       300.9264 
PotEng   =    -46620.4303 E_bond   =      2623.4643 E_angle  =     11042.6370 
E_dihed  =      5215.7360 E_impro  =       215.5873 E_vdwl   =     -2131.5363 
E_coul   =    210630.8513 E_long   =   -274217.1699 Press    =      -816.0277 
Volume   =    309764.6630 
---------------- Step     2350 ----- CPU =      7.2939 (sec) ----------------
TotEng   =    -24953.9439 KinEng   =     21562.4218 Temp     =       300.6794 
PotEng   =    -46516.3656 E_bond   =      2556.3573 E_angle  =     11050.4806 
E_dihed  =      5289.4855 E_impro  =       235.1121 E_vdwl   =     -2229.4929 
E_coul   =    210793.6623 E_long   =   -274211.9707 Press    =       111.7027 
Volume   =    309601.9358 
---------------- Step     2400 ----- CPU =      7.4325 (sec) ----------------
TotEng   =    -24960.9124 KinEng   =     21413.9388 Temp     =       298.6089 
PotEng   =    -46374.8512 E_bond   =      2555.4471 E_angle  =     10978.4157 
E_dihed  =      5282.2938 E_impro  =       219.1250 E_vdwl   =     -2066.4235 
E_coul   =    210863.1479 E_long   =   -274206.8572 Press    =       345.7926 
Volume   =    309410.1821 
---------------- Step     2450 ----- CPU =      7.5752 (sec) ----------------
TotEng   =    -25044.5645 KinEng   =     21524.0879 Temp     =       300.1449 
PotEng   =    -46568.6524 E_bond   =      2557.8778 E_angle  =     11097.1377 
E_dihed  =      5234.4607 E_impro  =       190.3970 E_vdwl   =     -2077.9434 
E_coul   =    210647.0583 E_long   =   -274217.6405 Press    =      -121.7041 
Volume   =    309215.8478 
---------------- Step     2500 ----- CPU =      7.7142 (sec) ----------------
TotEng   =    -25151.5781 KinEng   =     21344.4300 Temp     =       297.6396 
PotEng   =    -46496.0082 E_bond   =      2546.1468 E_angle  =     11065.1566 
E_dihed  =      5240.4059 E_impro  =       230.4068 E_vdwl   =     -2060.3519 
E_coul   =    210706.6029 E_long   =   -274224.3753 Press    =       466.8600 
Volume   =    308916.9739 
---------------- Step     2550 ----- CPU =      7.8530 (sec) ----------------
TotEng   =    -25174.9770 KinEng   =     21604.7330 Temp     =       301.2694 
PotEng   =    -46779.7100 E_bond   =      2541.8440 E_angle  =     11010.4608 
E_dihed  =      5189.4433 E_impro  =       233.6055 E_vdwl   =     -2067.1032 
E_coul   =    210529.5951 E_long   =   -274217.5553 Press    =       141.6865 
Volume   =    308746.8684 
---------------- Step     2600 ----- CPU =      7.9950 (sec) ----------------
TotEng   =    -25143.3044 KinEng   =     21459.7884 Temp     =       299.2482 
PotEng   =    -46603.0927 E_bond   =      2529.3766 E_angle  =     11083.5343 
E_dihed  =      5249.0154 E_impro  =       242.2292 E_vdwl   =     -2000.1491 
E_coul   =    210512.8507 E_long   =   -274219.9498 Press    =       240.5753 
Volume   =    308577.3815 
---------------- Step     2650 ----- CPU =      8.1366 (sec) ----------------
TotEng   =    -25067.4506 KinEng   =     21674.4754 Temp     =       302.2420 
PotEng   =    -46741.9260 E_bond   =      2589.1577 E_angle  =     10982.3658 
E_dihed  =      5252.5371 E_impro  =       229.8699 E_vdwl   =     -2062.5417 
E_coul   =    210480.0269 E_long   =   -274213.3417 Press    =      -173.1472 
Volume   =    308469.5404 
---------------- Step     2700 ----- CPU =      8.2765 (sec) ----------------
TotEng   =    -25035.5840 KinEng   =     21468.3445 Temp     =       299.3676 
PotEng   =    -46503.9285 E_bond   =      2573.0454 E_angle  =     11063.0480 
E_dihed  =      5251.9281 E_impro  =       197.0482 E_vdwl   =     -2194.2502 
E_coul   =    210826.1457 E_long   =   -274220.8938 Press    =        53.8280 
Volume   =    308428.9509 
---------------- Step     2750 ----- CPU =      8.4189 (sec) ----------------
TotEng   =    -25023.3470 KinEng   =     21435.3551 Temp     =       298.9075 
PotEng   =    -46458.7022 E_bond   =      2571.3622 E_angle  =     11076.4619 
E_dihed  =      5304.3826 E_impro  =       211.6517 E_vdwl   =     -2147.8545 
E_coul   =    210735.5580 E_long   =   -274210.2642 Press    =        27.1157 
Volume   =    308555.6588 
---------------- Step     2800 ----- CPU =      8.5606 (sec) ----------------
TotEng   =    -25073.1149 KinEng   =     21531.5375 Temp     =       300.2488 
PotEng   =    -46604.6524 E_bond   =      2545.0607 E_angle  =     11148.0995 
E_dihed  =      5238.6001 E_impro  =       226.3532 E_vdwl   =     -2244.0328 
E_coul   =    210699.5061 E_long   =   -274218.2392 Press    =      -219.7765 
Volume   =    308715.8466 
---------------- Step     2850 ----- CPU =      8.7019 (sec) ----------------
TotEng   =    -25215.4812 KinEng   =     21389.8357 Temp     =       298.2728 
PotEng   =    -46605.3169 E_bond   =      2570.5430 E_angle  =     11000.0734 
E_dihed  =      5257.2388 E_impro  =       228.9840 E_vdwl   =     -2046.7457 
E_coul   =    210616.6113 E_long   =   -274232.0217 Press    =        48.1422 
Volume   =    308779.6172 
---------------- Step     2900 ----- CPU =      8.8404 (sec) ----------------
TotEng   =    -25230.1867 KinEng   =     21504.3466 Temp     =       299.8696 
PotEng   =    -46734.5332 E_bond   =      2544.4946 E_angle  =     10988.2654 
E_dihed  =      5253.6001 E_impro  =       243.3711 E_vdwl   =     -2271.4466 
E_coul   =    210719.6078 E_long   =   -274212.4256 Press    =        10.5480 
Volume   =    308939.4445 
---------------- Step     2950 ----- CPU =      8.9819 (sec) ----------------
TotEng   =    -25181.9550 KinEng   =     21467.0601 Temp     =       299.3496 
PotEng   =    -46649.0152 E_bond   =      2618.1441 E_angle  =     10954.9346 
E_dihed  =      5293.4301 E_impro  =       238.4692 E_vdwl   =     -2081.0539 
E_coul   =    210535.2877 E_long   =   -274208.2270 Press    =       147.1448 
Volume   =    308967.1105 
---------------- Step     3000 ----- CPU =      9.1207 (sec) ----------------
TotEng   =    -25151.2318 KinEng   =     21462.1894 Temp     =       299.2817 
PotEng   =    -46613.4212 E_bond   =      2616.3777 E_angle  =     10905.5085 
E_dihed  =      5255.2288 E_impro  =       229.8962 E_vdwl   =     -2037.5201 
E_coul   =    210633.5786 E_long   =   -274216.4909 Press    =      -169.1774 
Volume   =    308849.7880 
---------------- Step     3050 ----- CPU =      9.2590 (sec) ----------------
TotEng   =    -25154.4900 KinEng   =     21457.2808 Temp     =       299.2133 
PotEng   =    -46611.7709 E_bond   =      2555.1218 E_angle  =     11117.0390 
E_dihed  =      5210.6517 E_impro  =       243.3126 E_vdwl   =     -1944.9083 
E_coul   =    210412.6318 E_long   =   -274205.6195 Press    =        34.6306 
Volume   =    308673.4164 
---------------- Step     3100 ----- CPU =      9.4002 (sec) ----------------
TotEng   =    -25253.0338 KinEng   =     21370.0182 Temp     =       297.9964 
PotEng   =    -46623.0520 E_bond   =      2540.2308 E_angle  =     10994.0314 
E_dihed  =      5237.7775 E_impro  =       208.2752 E_vdwl   =     -2053.6639 
E_coul   =    210657.3319 E_long   =   -274207.0350 Press    =       319.9906 
Volume   =    308611.2849 
---------------- Step     3150 ----- CPU =      9.5392 (sec) ----------------
TotEng   =    -25279.8982 KinEng   =     21376.7972 Temp     =       298.0910 
PotEng   =    -46656.6954 E_bond   =      2571.2493 E_angle  =     10977.7444 
E_dihed  =      5211.4335 E_impro  =       222.5251 E_vdwl   =     -1970.9195 
E_coul   =    210543.2586 E_long   =   -274211.9868 Press    =       110.5639 
Volume   =    308583.2359 
---------------- Step     3200 ----- CPU =      9.6857 (sec) ----------------
TotEng   =    -25175.2517 KinEng   =     21504.9677 Temp     =       299.8783 
PotEng   =    -46680.2193 E_bond   =      2498.5551 E_angle  =     10921.2062 
E_dihed  =      5317.2415 E_impro  =       223.8688 E_vdwl   =     -2244.7523 
E_coul   =    210817.9716 E_long   =   -274214.3103 Press    =       182.8135 
Volume   =    308688.5704 
---------------- Step     3250 ----- CPU =      9.8247 (sec) ----------------
TotEng   =    -24977.8503 KinEng   =     21490.1913 Temp     =       299.6722 
PotEng   =    -46468.0415 E_bond   =      2579.7374 E_angle  =     10951.5038 
E_dihed  =      5261.3444 E_impro  =       228.2176 E_vdwl   =     -2030.9520 
E_coul   =    210757.0186 E_long   =   -274214.9113 Press    =        75.3275 
Volume   =    308821.7209 
---------------- Step     3300 ----- CPU =      9.9644 (sec) ----------------
TotEng   =    -24798.0769 KinEng   =     21701.2964 Temp     =       302.6160 
PotEng   =    -46499.3733 E_bond   =      2562.6758 E_angle  =     11073.1776 
E_dihed  =      5253.1585 E_impro  =       217.6864 E_vdwl   =     -2127.3032 
E_coul   =    210731.8303 E_long   =   -274210.5987 Press    =       292.1998 
Volume   =    308999.5541 
---------------- Step     3350 ----- CPU =     10.1074 (sec) ----------------
TotEng   =    -24916.5650 KinEng   =     21662.8981 Temp     =       302.0805 
PotEng   =    -46579.4630 E_bond   =      2591.0565 E_angle  =     11004.3106 
E_dihed  =      5227.3115 E_impro  =       235.9587 E_vdwl   =     -2200.3784 
E_coul   =    210775.5373 E_long   =   -274213.2593 Press    =      -202.0485 
Volume   =    309241.7823 
---------------- Step     3400 ----- CPU =     10.2485 (sec) ----------------
TotEng   =    -25248.6241 KinEng   =     21562.2299 Temp     =       300.6768 
PotEng   =    -46810.8540 E_bond   =      2535.9825 E_angle  =     10956.6280 
E_dihed  =      5242.4377 E_impro  =       211.9511 E_vdwl   =     -2118.6507 
E_coul   =    210579.6236 E_long   =   -274218.8262 Press    =      -128.0290 
Volume   =    309367.7206 
---------------- Step     3450 ----- CPU =     10.3909 (sec) ----------------
TotEng   =    -25506.7713 KinEng   =     21394.4420 Temp     =       298.3370 
PotEng   =    -46901.2133 E_bond   =      2497.1689 E_angle  =     10906.0482 
E_dihed  =      5273.9749 E_impro  =       236.8283 E_vdwl   =     -2265.4878 
E_coul   =    210655.5950 E_long   =   -274205.3408 Press    =       215.4770 
Volume   =    309620.5761 
---------------- Step     3500 ----- CPU =     10.5386 (sec) ----------------
TotEng   =    -25393.7245 KinEng   =     21275.1939 Temp     =       296.6741 
PotEng   =    -46668.9183 E_bond   =      2607.2730 E_angle  =     10941.2255 
E_dihed  =      5277.2114 E_impro  =       225.7257 E_vdwl   =     -2167.3148 
E_coul   =    210661.7468 E_long   =   -274214.7858 Press    =      -264.9543 
Volume   =    309693.7981 
---------------- Step     3550 ----- CPU =     10.6844 (sec) ----------------
TotEng   =    -25039.5824 KinEng   =     21731.2859 Temp     =       303.0342 
PotEng   =    -46770.8683 E_bond   =      2544.5073 E_angle  =     11054.6901 
E_dihed  =      5207.2844 E_impro  =       209.1036 E_vdwl   =     -1939.0322 
E_coul   =    210369.2684 E_long   =   -274216.6899 Press    =       379.6129 
Volume   =    309381.3952 
---------------- Step     3600 ----- CPU =     10.8262 (sec) ----------------
TotEng   =    -24954.6623 KinEng   =     21716.9491 Temp     =       302.8343 
PotEng   =    -46671.6114 E_bond   =      2558.9306 E_angle  =     11042.4920 
E_dihed  =      5216.3386 E_impro  =       230.1803 E_vdwl   =     -1817.5622 
E_coul   =    210319.7071 E_long   =   -274221.6978 Press    =       174.1714 
Volume   =    309179.3968 
---------------- Step     3650 ----- CPU =     10.9694 (sec) ----------------
TotEng   =    -25127.5419 KinEng   =     21559.7865 Temp     =       300.6427 
PotEng   =    -46687.3283 E_bond   =      2525.4330 E_angle  =     10866.2972 
E_dihed  =      5323.3691 E_impro  =       235.2588 E_vdwl   =     -1996.6004 
E_coul   =    210586.6400 E_long   =   -274227.7260 Press    =        47.3292 
Volume   =    309098.0818 
---------------- Step     3700 ----- CPU =     11.1094 (sec) ----------------
TotEng   =    -25240.7430 KinEng   =     21426.7677 Temp     =       298.7878 
PotEng   =    -46667.5107 E_bond   =      2563.5891 E_angle  =     11012.4526 
E_dihed  =      5259.6539 E_impro  =       226.9378 E_vdwl   =     -1954.4642 
E_coul   =    210437.3687 E_long   =   -274213.0487 Press    =       355.1585 
Volume   =    309059.1194 
---------------- Step     3750 ----- CPU =     11.2488 (sec) ----------------
TotEng   =    -25255.6343 KinEng   =     21461.2460 Temp     =       299.2686 
PotEng   =    -46716.8803 E_bond   =      2522.0685 E_angle  =     10966.3526 
E_dihed  =      5228.4204 E_impro  =       229.4859 E_vdwl   =     -1912.4981 
E_coul   =    210462.4702 E_long   =   -274213.1798 Press    =        99.9856 
Volume   =    309201.8071 
---------------- Step     3800 ----- CPU =     11.3889 (sec) ----------------
TotEng   =    -25202.8407 KinEng   =     21545.4689 Temp     =       300.4430 
PotEng   =    -46748.3097 E_bond   =      2479.9651 E_angle  =     10975.4657 
E_dihed  =      5228.9349 E_impro  =       225.5129 E_vdwl   =     -2011.1940 
E_coul   =    210573.1610 E_long   =   -274220.1551 Press    =        46.4395 
Volume   =    309331.6063 
---------------- Step     3850 ----- CPU =     11.5320 (sec) ----------------
TotEng   =    -25186.0161 KinEng   =     21528.8688 Temp     =       300.2115 
PotEng   =    -46714.8849 E_bond   =      2588.8977 E_angle  =     11037.9213 
E_dihed  =      5245.2291 E_impro  =       237.4798 E_vdwl   =     -1960.6575 
E_coul   =    210346.0171 E_long   =   -274209.7725 Press    =        38.4272 
Volume   =    309497.1399 
---------------- Step     3900 ----- CPU =     11.6728 (sec) ----------------
TotEng   =    -25178.5535 KinEng   =     21463.7508 Temp     =       299.3035 
PotEng   =    -46642.3043 E_bond   =      2599.2957 E_angle  =     11018.9181 
E_dihed  =      5266.4473 E_impro  =       229.4389 E_vdwl   =     -2317.1001 
E_coul   =    210781.3893 E_long   =   -274220.6936 Press    =      -348.4824 
Volume   =    309641.1466 
---------------- Step     3950 ----- CPU =     11.8161 (sec) ----------------
TotEng   =    -25084.2050 KinEng   =     21517.4042 Temp     =       300.0517 
PotEng   =    -46601.6093 E_bond   =      2546.2370 E_angle  =     11031.5989 
E_dihed  =      5288.4159 E_impro  =       236.0986 E_vdwl   =     -1987.1519 
E_coul   =    210507.2442 E_long   =   -274224.0520 Press    =       220.0384 
Volume   =    309671.3133 
---------------- Step     4000 ----- CPU =     11.9604 (sec) ----------------
TotEng   =    -25032.6854 KinEng   =     21423.8712 Temp     =       298.7474 
PotEng   =    -46456.5566 E_bond   =      2548.4081 E_angle  =     11053.8478 
E_dihed  =      5271.3845 E_impro  =       227.0387 E_vdwl   =     -2134.6989 
E_coul   =    210772.4972 E_long   =   -274195.0340 Press    =        33.6041 
Volume   =    309697.3579 
---------------- Step     4050 ----- CPU =     12.1027 (sec) ----------------
TotEng   =    -25075.8296 KinEng   =     21499.8234 Temp     =       299.8065 
PotEng   =    -46575.6530 E_bond   =      2577.6419 E_angle  =     11028.8363 
E_dihed  =      5264.7387 E_impro  =       220.5262 E_vdwl   =     -2152.1512 
E_coul   =    210706.6305 E_long   =   -274221.8752 Press    =      -183.6994 
Volume   =    309602.2417 
---------------- Step     4100 ----- CPU =     12.2475 (sec) ----------------
TotEng   =    -25180.1623 KinEng   =     21475.2080 Temp     =       299.4633 
PotEng   =    -46655.3702 E_bond   =      2576.3689 E_angle  =     11054.7838 
E_dihed  =      5260.3038 E_impro  =       220.4677 E_vdwl   =     -2265.4885 
E_coul   =    210715.0893 E_long   =   -274216.8952 Press    =      -432.7289 
Volume   =    309543.8061 
---------------- Step     4150 ----- CPU =     12.3877 (sec) ----------------
TotEng   =    -25219.4093 KinEng   =     21371.5606 Temp     =       298.0179 
PotEng   =    -46590.9699 E_bond   =      2593.2870 E_angle  =     10975.7920 
E_dihed  =      5210.3473 E_impro  =       220.8816 E_vdwl   =     -1960.0491 
E_coul   =    210569.0906 E_long   =   -274200.3192 Press    =      -331.6482 
Volume   =    309402.9399 
---------------- Step     4200 ----- CPU =     12.5312 (sec) ----------------
TotEng   =    -25093.8444 KinEng   =     21640.6547 Temp     =       301.7704 
PotEng   =    -46734.4991 E_bond   =      2535.2905 E_angle  =     11038.7943 
E_dihed  =      5232.4419 E_impro  =       206.1077 E_vdwl   =     -2031.6054 
E_coul   =    210501.1445 E_long   =   -274216.6726 Press    =       243.8048 
Volume   =    309315.5546 
---------------- Step     4250 ----- CPU =     12.6763 (sec) ----------------
TotEng   =    -25009.7730 KinEng   =     21523.0687 Temp     =       300.1307 
PotEng   =    -46532.8417 E_bond   =      2548.8055 E_angle  =     11046.6840 
E_dihed  =      5262.7407 E_impro  =       220.0077 E_vdwl   =     -2001.4759 
E_coul   =    210596.8964 E_long   =   -274206.5000 Press    =       -99.7737 
Volume   =    309430.4710 
---------------- Step     4300 ----- CPU =     12.8171 (sec) ----------------
TotEng   =    -25046.3388 KinEng   =     21599.5479 Temp     =       301.1971 
PotEng   =    -46645.8868 E_bond   =      2599.5879 E_angle  =     10993.9425 
E_dihed  =      5322.3949 E_impro  =       226.5519 E_vdwl   =     -2180.2401 
E_coul   =    210600.8598 E_long   =   -274208.9838 Press    =      -174.2560 
Volume   =    309482.0378 
---------------- Step     4350 ----- CPU =     12.9590 (sec) ----------------
TotEng   =    -25110.0043 KinEng   =     21454.3131 Temp     =       299.1719 
PotEng   =    -46564.3174 E_bond   =      2583.9417 E_angle  =     10972.0657 
E_dihed  =      5301.3325 E_impro  =       237.6126 E_vdwl   =     -2261.0206 
E_coul   =    210820.5537 E_long   =   -274218.8031 Press    =        12.9026 
Volume   =    309418.1194 
---------------- Step     4400 ----- CPU =     13.0990 (sec) ----------------
TotEng   =    -25089.6900 KinEng   =     21618.3409 Temp     =       301.4592 
PotEng   =    -46708.0309 E_bond   =      2569.1116 E_angle  =     10887.6940 
E_dihed  =      5276.8191 E_impro  =       226.8214 E_vdwl   =     -2326.2687 
E_coul   =    210870.7980 E_long   =   -274213.0062 Press    =       -45.0791 
Volume   =    309341.0975 
---------------- Step     4450 ----- CPU =     13.2412 (sec) ----------------
TotEng   =    -25014.7939 KinEng   =     21447.5084 Temp     =       299.0770 
PotEng   =    -46462.3023 E_bond   =      2623.4540 E_angle  =     11117.2149 
E_dihed  =      5289.8930 E_impro  =       226.9090 E_vdwl   =     -2245.8815 
E_coul   =    210749.8841 E_long   =   -274223.7759 Press    =      -320.7500 
Volume   =    309136.3922 
---------------- Step     4500 ----- CPU =     13.3810 (sec) ----------------
TotEng   =    -24982.6064 KinEng   =     21516.6065 Temp     =       300.0406 
PotEng   =    -46499.2129 E_bond   =      2620.2757 E_angle  =     10981.2095 
E_dihed  =      5273.9302 E_impro  =       231.3830 E_vdwl   =     -1976.0448 
E_coul   =    210578.9995 E_long   =   -274208.9660 Press    =      -228.7630 
Volume   =    308925.6828 
---------------- Step     4550 ----- CPU =     13.5236 (sec) ----------------
TotEng   =    -25106.4542 KinEng   =     21500.0535 Temp     =       299.8097 
PotEng   =    -46606.5077 E_bond   =      2565.2226 E_angle  =     11015.8392 
E_dihed  =      5304.9455 E_impro  =       222.8229 E_vdwl   =     -2051.3423 
E_coul   =    210550.3300 E_long   =   -274214.3256 Press    =       164.9957 
Volume   =    308873.7879 
---------------- Step     4600 ----- CPU =     13.6639 (sec) ----------------
TotEng   =    -25265.9767 KinEng   =     21485.8702 Temp     =       299.6119 
PotEng   =    -46751.8469 E_bond   =      2615.1127 E_angle  =     11098.4339 
E_dihed  =      5176.3301 E_impro  =       186.2730 E_vdwl   =     -2202.1995 
E_coul   =    210595.4988 E_long   =   -274221.2958 Press    =      -251.5789 
Volume   =    309029.6854 
---------------- Step     4650 ----- CPU =     13.8079 (sec) ----------------
TotEng   =    -25356.8114 KinEng   =     21564.3476 Temp     =       300.7063 
PotEng   =    -46921.1590 E_bond   =      2510.8948 E_angle  =     10991.8504 
E_dihed  =      5216.6127 E_impro  =       216.9921 E_vdwl   =     -2251.9934 
E_coul   =    210601.1383 E_long   =   -274206.6539 Press    =      -220.9711 
Volume   =    309165.9824 
---------------- Step     4700 ----- CPU =     13.9481 (sec) ----------------
TotEng   =    -25230.0110 KinEng   =     21290.8506 Temp     =       296.8925 
PotEng   =    -46520.8616 E_bond   =      2515.1007 E_angle  =     11097.6226 
E_dihed  =      5268.0062 E_impro  =       226.5439 E_vdwl   =     -2202.5146 
E_coul   =    210795.6931 E_long   =   -274221.3136 Press    =      -105.8624 
Volume   =    309113.9511 
---------------- Step     4750 ----- CPU =     14.0935 (sec) ----------------
TotEng   =    -24958.2600 KinEng   =     21566.5226 Temp     =       300.7366 
PotEng   =    -46524.7827 E_bond   =      2625.1438 E_angle  =     11005.9837 
E_dihed  =      5334.7983 E_impro  =       234.1776 E_vdwl   =     -2130.9721 
E_coul   =    210614.4700 E_long   =   -274208.3840 Press    =      -484.9723 
Volume   =    308893.7889 
---------------- Step     4800 ----- CPU =     14.2337 (sec) ----------------
TotEng   =    -24886.3682 KinEng   =     21679.9149 Temp     =       302.3178 
PotEng   =    -46566.2831 E_bond   =      2593.3342 E_angle  =     11197.7624 
E_dihed  =      5305.2030 E_impro  =       209.7836 E_vdwl   =     -1927.9466 
E_coul   =    210267.6571 E_long   =   -274212.0768 Press    =        24.5073 
Volume   =    308753.7679 
---------------- Step     4850 ----- CPU =     14.3764 (sec) ----------------
TotEng   =    -25143.4229 KinEng   =     21606.5115 Temp     =       301.2942 
PotEng   =    -46749.9344 E_bond   =      2521.8061 E_angle  =     11132.4875 
E_dihed  =      5232.4272 E_impro  =       207.1691 E_vdwl   =     -2138.5970 
E_coul   =    210509.8136 E_long   =   -274215.0408 Press    =       150.1601 
Volume   =    308740.5800 
---------------- Step     4900 ----- CPU =     14.5160 (sec) ----------------
TotEng   =    -25433.5622 KinEng   =     21451.7346 Temp     =       299.1359 
PotEng   =    -46885.2968 E_bond   =      2579.4912 E_angle  =     11015.0940 
E_dihed  =      5286.9347 E_impro  =       225.8991 E_vdwl   =     -2213.8436 
E_coul   =    210433.2546 E_long   =   -274212.1268 Press    =      -341.9863 
Volume   =    308880.0797 
---------------- Step     4950 ----- CPU =     14.6577 (sec) ----------------
TotEng   =    -25556.1885 KinEng   =     21418.3452 Temp     =       298.6703 
PotEng   =    -46974.5337 E_bond   =      2532.4972 E_angle  =     10961.2420 
E_dihed  =      5233.5816 E_impro  =       215.9531 E_vdwl   =     -2218.5102 
E_coul   =    210547.5331 E_long   =   -274246.8305 Press    =       212.9550 
Volume   =    308972.5483 
---------------- Step     5000 ----- CPU =     14.8006 (sec) ----------------
TotEng   =    -25355.8361 KinEng   =     21421.5505 Temp     =       298.7150 
PotEng   =    -46777.3866 E_bond   =      2586.4201 E_angle  =     11021.4191 
E_dihed  =      5205.5891 E_impro  =       232.0466 E_vdwl   =     -2078.9168 
E_coul   =    210467.4693 E_long   =   -274211.4140 Press    =      -237.8754 
Volume   =    309036.7853 
---------------- Step     5050 ----- CPU =     14.9397 (sec) ----------------
TotEng   =    -24933.0113 KinEng   =     21653.6073 Temp     =       301.9510 
PotEng   =    -46586.6186 E_bond   =      2588.5757 E_angle  =     11068.5175 
E_dihed  =      5278.8125 E_impro  =       225.2430 E_vdwl   =     -2074.7232 
E_coul   =    210544.5502 E_long   =   -274217.5943 Press    =      -203.8553 
Volume   =    309249.6498 
---------------- Step     5100 ----- CPU =     15.0842 (sec) ----------------
TotEng   =    -24715.5028 KinEng   =     21631.2278 Temp     =       301.6389 
PotEng   =    -46346.7306 E_bond   =      2626.5940 E_angle  =     11199.9259 
E_dihed  =      5303.0650 E_impro  =       212.5738 E_vdwl   =     -1999.1850 
E_coul   =    210536.0055 E_long   =   -274225.7097 Press    =        16.2123 
Volume   =    309599.3680 
---------------- Step     5150 ----- CPU =     15.2255 (sec) ----------------
TotEng   =    -24971.5870 KinEng   =     21568.5743 Temp     =       300.7652 
PotEng   =    -46540.1613 E_bond   =      2605.2454 E_angle  =     11077.8209 
E_dihed  =      5207.8451 E_impro  =       239.0420 E_vdwl   =     -2129.4656 
E_coul   =    210676.8719 E_long   =   -274217.5209 Press    =      -426.8450 
Volume   =    310077.2306 
---------------- Step     5200 ----- CPU =     15.3683 (sec) ----------------
TotEng   =    -25346.9459 KinEng   =     21459.8441 Temp     =       299.2490 
PotEng   =    -46806.7900 E_bond   =      2474.1436 E_angle  =     11010.9621 
E_dihed  =      5187.9603 E_impro  =       234.1369 E_vdwl   =     -1964.3563 
E_coul   =    210456.0438 E_long   =   -274205.6805 Press    =       252.8727 
Volume   =    310388.5847 
---------------- Step     5250 ----- CPU =     15.5084 (sec) ----------------
TotEng   =    -25439.0697 KinEng   =     21319.8294 Temp     =       297.2966 
PotEng   =    -46758.8992 E_bond   =      2598.3665 E_angle  =     10941.1175 
E_dihed  =      5233.4891 E_impro  =       231.6419 E_vdwl   =     -2181.2645 
E_coul   =    210631.5630 E_long   =   -274213.8127 Press    =      -503.3252 
Volume   =    310656.6195 
---------------- Step     5300 ----- CPU =     15.6469 (sec) ----------------
TotEng   =    -25274.0516 KinEng   =     21526.0654 Temp     =       300.1725 
PotEng   =    -46800.1170 E_bond   =      2586.3665 E_angle  =     10960.9141 
E_dihed  =      5255.1084 E_impro  =       230.5035 E_vdwl   =     -2013.3612 
E_coul   =    210405.2869 E_long   =   -274224.9351 Press    =        54.7929 
Volume   =    310704.7648 
---------------- Step     5350 ----- CPU =     15.7861 (sec) ----------------
TotEng   =    -25058.3325 KinEng   =     21471.6628 Temp     =       299.4138 
PotEng   =    -46529.9953 E_bond   =      2603.7108 E_angle  =     11214.8106 
E_dihed  =      5213.1193 E_impro  =       212.2068 E_vdwl   =     -2030.9941 
E_coul   =    210474.8039 E_long   =   -274217.6526 Press    =      -287.5852 
Volume   =    310673.5360 
---------------- Step     5400 ----- CPU =     15.9277 (sec) ----------------
TotEng   =    -24937.8060 KinEng   =     21473.2216 Temp     =       299.4356 
PotEng   =    -46411.0276 E_bond   =      2628.4424 E_angle  =     11174.8531 
E_dihed  =      5323.7837 E_impro  =       230.5210 E_vdwl   =     -2149.2483 
E_coul   =    210592.4865 E_long   =   -274211.8660 Press    =      -316.0108 
Volume   =    310597.4418 
---------------- Step     5450 ----- CPU =     16.0664 (sec) ----------------
TotEng   =    -24961.8602 KinEng   =     21659.2084 Temp     =       302.0291 
PotEng   =    -46621.0686 E_bond   =      2536.7224 E_angle  =     11020.1180 
E_dihed  =      5321.9099 E_impro  =       223.7391 E_vdwl   =     -2038.7187 
E_coul   =    210529.3834 E_long   =   -274214.2227 Press    =       270.7571 
Volume   =    310348.8345 
---------------- Step     5500 ----- CPU =     16.2054 (sec) ----------------
TotEng   =    -25098.0908 KinEng   =     21405.7082 Temp     =       298.4941 
PotEng   =    -46503.7991 E_bond   =      2630.1490 E_angle  =     11148.8909 
E_dihed  =      5266.3724 E_impro  =       211.3957 E_vdwl   =     -2183.1632 
E_coul   =    210641.3436 E_long   =   -274218.7874 Press    =      -334.1967 
Volume   =    309958.1896 
---------------- Step     5550 ----- CPU =     16.3443 (sec) ----------------
TotEng   =    -25155.9745 KinEng   =     21476.1393 Temp     =       299.4763 
PotEng   =    -46632.1138 E_bond   =      2588.9287 E_angle  =     11029.1731 
E_dihed  =      5261.4079 E_impro  =       212.3599 E_vdwl   =     -2227.3251 
E_coul   =    210726.9369 E_long   =   -274223.5951 Press    =      -254.8138 
Volume   =    309474.3305 
---------------- Step     5600 ----- CPU =     16.4868 (sec) ----------------
TotEng   =    -24983.7051 KinEng   =     21706.8544 Temp     =       302.6935 
PotEng   =    -46690.5595 E_bond   =      2588.4550 E_angle  =     11019.8923 
E_dihed  =      5284.5245 E_impro  =       213.6678 E_vdwl   =     -2133.6224 
E_coul   =    210552.0010 E_long   =   -274215.4777 Press    =      -160.6925 
Volume   =    309042.9619 
---------------- Step     5650 ----- CPU =     16.6265 (sec) ----------------
TotEng   =    -24906.8343 KinEng   =     21552.2024 Temp     =       300.5369 
PotEng   =    -46459.0367 E_bond   =      2601.5981 E_angle  =     11155.9657 
E_dihed  =      5318.4717 E_impro  =       205.9840 E_vdwl   =     -2035.2841 
E_coul   =    210519.5673 E_long   =   -274225.3395 Press    =       297.9839 
Volume   =    308763.7651 
---------------- Step     5700 ----- CPU =     16.7676 (sec) ----------------
TotEng   =    -24982.9268 KinEng   =     21540.5926 Temp     =       300.3750 
PotEng   =    -46523.5194 E_bond   =      2564.0820 E_angle  =     11116.0688 
E_dihed  =      5293.8087 E_impro  =       229.6705 E_vdwl   =     -1996.5784 
E_coul   =    210498.7744 E_long   =   -274229.3454 Press    =      -134.7325 
Volume   =    308636.2647 
---------------- Step     5750 ----- CPU =     16.9077 (sec) ----------------
TotEng   =    -25149.4308 KinEng   =     21498.3679 Temp     =       299.7862 
PotEng   =    -46647.7987 E_bond   =      2584.0387 E_angle  =     11043.4964 
E_dihed  =      5313.3508 E_impro  =       250.0042 E_vdwl   =     -2151.3496 
E_coul   =    210530.6674 E_long   =   -274218.0066 Press    =      -190.1180 
Volume   =    308717.9223 
---------------- Step     5800 ----- CPU =     17.0476 (sec) ----------------
TotEng   =    -25248.5151 KinEng   =     21481.5489 Temp     =       299.5517 
PotEng   =    -46730.0640 E_bond   =      2583.3940 E_angle  =     11080.2841 
E_dihed  =      5254.8478 E_impro  =       222.6702 E_vdwl   =     -2208.0225 
E_coul   =    210555.0106 E_long   =   -274218.2483 Press    =      -151.5821 
Volume   =    308797.6777 
---------------- Step     5850 ----- CPU =     17.1872 (sec) ----------------
TotEng   =    -25234.2934 KinEng   =     21440.8138 Temp     =       298.9837 
PotEng   =    -46675.1072 E_bond   =      2643.5495 E_angle  =     11151.5262 
E_dihed  =      5279.7186 E_impro  =       213.7995 E_vdwl   =     -2161.9953 
E_coul   =    210418.9085 E_long   =   -274220.6142 Press    =      -659.1886 
Volume   =    308823.9112 
---------------- Step     5900 ----- CPU =     17.3299 (sec) ----------------
TotEng   =    -25120.2210 KinEng   =     21584.0284 Temp     =       300.9807 
PotEng   =    -46704.2494 E_bond   =      2531.6067 E_angle  =     11190.4761 
E_dihed  =      5259.3468 E_impro  =       214.1301 E_vdwl   =     -1936.8165 
E_coul   =    210262.9771 E_long   =   -274225.9697 Press    =       239.7472 
Volume   =    308711.7027 
---------------- Step     5950 ----- CPU =     17.4699 (sec) ----------------
TotEng   =    -25071.7417 KinEng   =     21521.8605 Temp     =       300.1138 
PotEng   =    -46593.6022 E_bond   =      2600.6156 E_angle  =     11080.2019 
E_dihed  =      5290.9084 E_impro  =       232.7988 E_vdwl   =     -2199.3094 
E_coul   =    210608.3541 E_long   =   -274207.1717 Press    =       -82.9202 
Volume   =    308550.7012 
---------------- Step     6000 ----- CPU =     17.6129 (sec) ----------------
TotEng   =    -25112.8512 KinEng   =     21478.4258 Temp     =       299.5081 
PotEng   =    -46591.2770 E_bond   =      2579.2906 E_angle  =     11171.2606 
E_dihed  =      5303.1007 E_impro  =       253.8446 E_vdwl   =     -2158.3012 
E_coul   =    210485.0842 E_long   =   -274225.5565 Press    =        90.7246 
Volume   =    308407.9940 
---------------- Step     6050 ----- CPU =     17.7551 (sec) ----------------
TotEng   =    -25154.9631 KinEng   =     21547.0496 Temp     =       300.4651 
PotEng   =    -46702.0128 E_bond   =      2585.9640 E_angle  =     11097.0326 
E_dihed  =      5228.2670 E_impro  =       231.6585 E_vdwl   =     -2197.5692 
E_coul   =    210590.9446 E_long   =   -274238.3103 Press    =       119.3852 
Volume   =    308264.7077 
---------------- Step     6100 ----- CPU =     17.8984 (sec) ----------------
TotEng   =    -25165.5228 KinEng   =     21509.7104 Temp     =       299.9444 
PotEng   =    -46675.2332 E_bond   =      2565.8490 E_angle  =     11078.0997 
E_dihed  =      5279.1915 E_impro  =       215.9638 E_vdwl   =     -2208.5466 
E_coul   =    210616.5672 E_long   =   -274222.3578 Press    =      -237.5506 
Volume   =    308072.8872 
---------------- Step     6150 ----- CPU =     18.0403 (sec) ----------------
TotEng   =    -25165.9782 KinEng   =     21424.5449 Temp     =       298.7568 
PotEng   =    -46590.5230 E_bond   =      2678.8292 E_angle  =     11113.1263 
E_dihed  =      5260.8008 E_impro  =       201.6818 E_vdwl   =     -1979.0393 
E_coul   =    210345.5260 E_long   =   -274211.4478 Press    =       227.4572 
Volume   =    307984.8864 
---------------- Step     6200 ----- CPU =     18.1855 (sec) ----------------
TotEng   =    -25208.5287 KinEng   =     21480.8186 Temp     =       299.5415 
PotEng   =    -46689.3473 E_bond   =      2545.4289 E_angle  =     11106.7296 
E_dihed  =      5270.8646 E_impro  =       204.4755 E_vdwl   =     -1971.9462 
E_coul   =    210373.7885 E_long   =   -274218.6882 Press    =        17.9803 
Volume   =    308017.6092 
---------------- Step     6250 ----- CPU =     18.3284 (sec) ----------------
TotEng   =    -25318.3993 KinEng   =     21493.9620 Temp     =       299.7248 
PotEng   =    -46812.3612 E_bond   =      2541.1204 E_angle  =     11054.5300 
E_dihed  =      5259.7327 E_impro  =       206.6418 E_vdwl   =     -1971.6629 
E_coul   =    210326.0720 E_long   =   -274228.7952 Press    =       184.7051 
Volume   =    308037.5036 
---------------- Step     6300 ----- CPU =     18.4684 (sec) ----------------
TotEng   =    -25405.0125 KinEng   =     21506.7385 Temp     =       299.9029 
PotEng   =    -46911.7510 E_bond   =      2600.8349 E_angle  =     11041.4671 
E_dihed  =      5267.2892 E_impro  =       203.7144 E_vdwl   =     -2018.1523 
E_coul   =    210218.1434 E_long   =   -274225.0477 Press    =      -145.8872 
Volume   =    308233.9558 
---------------- Step     6350 ----- CPU =     18.6076 (sec) ----------------
TotEng   =    -25426.5283 KinEng   =     21506.5677 Temp     =       299.9006 
PotEng   =    -46933.0960 E_bond   =      2539.6743 E_angle  =     10993.8673 
E_dihed  =      5295.1956 E_impro  =       221.3167 E_vdwl   =     -2116.0680 
E_coul   =    210350.6697 E_long   =   -274217.7517 Press    =       320.7714 
Volume   =    308460.5891 
---------------- Step     6400 ----- CPU =     18.7507 (sec) ----------------
TotEng   =    -25273.6836 KinEng   =     21560.6740 Temp     =       300.6551 
PotEng   =    -46834.3576 E_bond   =      2531.0410 E_angle  =     11105.8263 
E_dihed  =      5248.9302 E_impro  =       223.8897 E_vdwl   =     -2110.0961 
E_coul   =    210389.4362 E_long   =   -274223.3849 Press    =         3.0830 
Volume   =    308674.0372 
---------------- Step     6450 ----- CPU =     18.8943 (sec) ----------------
TotEng   =    -25107.5994 KinEng   =     21677.0873 Temp     =       302.2784 
PotEng   =    -46784.6867 E_bond   =      2593.9544 E_angle  =     11113.6335 
E_dihed  =      5294.3772 E_impro  =       214.3024 E_vdwl   =     -2034.7361 
E_coul   =    210266.4112 E_long   =   -274232.6293 Press    =      -217.5146 
Volume   =    308654.6648 
---------------- Step     6500 ----- CPU =     19.0343 (sec) ----------------
TotEng   =    -25071.4228 KinEng   =     21509.7282 Temp     =       299.9446 
PotEng   =    -46581.1510 E_bond   =      2587.3683 E_angle  =     11218.4622 
E_dihed  =      5265.0904 E_impro  =       227.8454 E_vdwl   =     -1933.4548 
E_coul   =    210268.4516 E_long   =   -274214.9141 Press    =      -207.8947 
Volume   =    308713.7450 
---------------- Step     6550 ----- CPU =     19.1743 (sec) ----------------
TotEng   =    -25176.0298 KinEng   =     21461.7854 Temp     =       299.2761 
PotEng   =    -46637.8152 E_bond   =      2586.7106 E_angle  =     11126.7801 
E_dihed  =      5316.1558 E_impro  =       238.4105 E_vdwl   =     -1966.4276 
E_coul   =    210276.3830 E_long   =   -274215.8276 Press    =       249.1322 
Volume   =    308768.9765 
---------------- Step     6600 ----- CPU =     19.3155 (sec) ----------------
TotEng   =    -25287.8926 KinEng   =     21493.8974 Temp     =       299.7239 
PotEng   =    -46781.7900 E_bond   =      2530.5213 E_angle  =     11144.6152 
E_dihed  =      5203.9059 E_impro  =       238.4575 E_vdwl   =     -2072.3800 
E_coul   =    210384.7397 E_long   =   -274211.6496 Press    =       -83.3116 
Volume   =    308903.8522 
---------------- Step     6650 ----- CPU =     19.4558 (sec) ----------------
TotEng   =    -25315.6843 KinEng   =     21371.9773 Temp     =       298.0238 
PotEng   =    -46687.6616 E_bond   =      2535.2329 E_angle  =     11152.6406 
E_dihed  =      5264.5344 E_impro  =       215.0924 E_vdwl   =     -1912.6051 
E_coul   =    210284.8878 E_long   =   -274227.4446 Press    =      -133.5849 
Volume   =    308961.3369 
---------------- Step     6700 ----- CPU =     19.6003 (sec) ----------------
TotEng   =    -25289.7096 KinEng   =     21419.7225 Temp     =       298.6895 
PotEng   =    -46709.4321 E_bond   =      2583.6440 E_angle  =     11183.8377 
E_dihed  =      5248.2938 E_impro  =       221.7244 E_vdwl   =     -2034.4976 
E_coul   =    210301.8716 E_long   =   -274214.3061 Press    =       -33.1159 
Volume   =    309092.9717 
---------------- Step     6750 ----- CPU =     19.7483 (sec) ----------------
TotEng   =    -25164.0369 KinEng   =     21536.6676 Temp     =       300.3203 
PotEng   =    -46700.7045 E_bond   =      2627.5236 E_angle  =     11061.7156 
E_dihed  =      5278.9860 E_impro  =       223.7823 E_vdwl   =     -2053.2527 
E_coul   =    210380.7888 E_long   =   -274220.2481 Press    =      -298.1070 
Volume   =    309225.6355 
---------------- Step     6800 ----- CPU =     19.8885 (sec) ----------------
TotEng   =    -25136.8549 KinEng   =     21584.9340 Temp     =       300.9934 
PotEng   =    -46721.7889 E_bond   =      2600.6027 E_angle  =     11141.3669 
E_dihed  =      5228.4173 E_impro  =       217.3163 E_vdwl   =     -1925.2481 
E_coul   =    210236.9375 E_long   =   -274221.1815 Press    =       142.1042 
Volume   =    309226.9102 
---------------- Step     6850 ----- CPU =     20.0285 (sec) ----------------
TotEng   =    -25281.0612 KinEng   =     21609.5446 Temp     =       301.3365 
PotEng   =    -46890.6058 E_bond   =      2634.3954 E_angle  =     11058.7394 
E_dihed  =      5218.6493 E_impro  =       234.7409 E_vdwl   =     -2065.3645 
E_coul   =    210261.2152 E_long   =   -274232.9815 Press    =        69.8845 
Volume   =    309233.6520 
---------------- Step     6900 ----- CPU =     20.1688 (sec) ----------------
TotEng   =    -25459.9964 KinEng   =     21428.0580 Temp     =       298.8058 
PotEng   =    -46888.0544 E_bond   =      2664.7019 E_angle  =     11003.4658 
E_dihed  =      5253.1900 E_impro  =       204.2888 E_vdwl   =     -2044.2547 
E_coul   =    210252.8418 E_long   =   -274222.2880 Press    =      -605.6016 
Volume   =    309216.7899 
---------------- Step     6950 ----- CPU =     20.3108 (sec) ----------------
TotEng   =    -25477.2343 KinEng   =     21398.5035 Temp     =       298.3937 
PotEng   =    -46875.7378 E_bond   =      2512.6197 E_angle  =     11001.8981 
E_dihed  =      5278.5912 E_impro  =       208.0284 E_vdwl   =     -1961.5276 
E_coul   =    210300.2110 E_long   =   -274215.5588 Press    =       296.6769 
Volume   =    309123.0587 
---------------- Step     7000 ----- CPU =     20.4539 (sec) ----------------
TotEng   =    -25305.3936 KinEng   =     21512.4561 Temp     =       299.9827 
PotEng   =    -46817.8496 E_bond   =      2611.7008 E_angle  =     11060.5595 
E_dihed  =      5276.5219 E_impro  =       227.2816 E_vdwl   =     -2069.4082 
E_coul   =    210287.2496 E_long   =   -274211.7549 Press    =      -335.4154 
Volume   =    309095.8981 
---------------- Step     7050 ----- CPU =     20.5931 (sec) ----------------
TotEng   =    -25068.0695 KinEng   =     21490.8744 Temp     =       299.6817 
PotEng   =    -46558.9439 E_bond   =      2627.9443 E_angle  =     11137.0554 
E_dihed  =      5324.5547 E_impro  =       216.4031 E_vdwl   =     -2016.5382 
E_coul   =    210365.4123 E_long   =   -274213.7754 Press    =       209.1862 
Volume   =    309069.9192 
---------------- Step     7100 ----- CPU =     20.7334 (sec) ----------------
TotEng   =    -24936.9437 KinEng   =     21783.8330 Temp     =       303.7669 
PotEng   =    -46720.7767 E_bond   =      2639.3568 E_angle  =     11063.1208 
E_dihed  =      5264.0506 E_impro  =       228.6898 E_vdwl   =     -1920.4276 
E_coul   =    210218.9195 E_long   =   -274214.4867 Press    =      -164.9554 
Volume   =    309193.9299 
---------------- Step     7150 ----- CPU =     20.8726 (sec) ----------------
TotEng   =    -25054.8972 KinEng   =     21502.7972 Temp     =       299.8480 
PotEng   =    -46557.6944 E_bond   =      2625.7718 E_angle  =     11224.2394 
E_dihed  =      5314.0854 E_impro  =       231.7603 E_vdwl   =     -2127.8958 
E_coul   =    210396.6552 E_long   =   -274222.3107 Press    =      -443.5521 
Volume   =    309307.7968 
---------------- Step     7200 ----- CPU =     21.0145 (sec) ----------------
TotEng   =    -25375.7124 KinEng   =     21389.6542 Temp     =       298.2703 
PotEng   =    -46765.3666 E_bond   =      2599.3311 E_angle  =     11048.2920 
E_dihed  =      5244.4422 E_impro  =       224.3409 E_vdwl   =     -2009.3206 
E_coul   =    210342.7972 E_long   =   -274215.2494 Press    =      -176.0738 
Volume   =    309358.2800 
---------------- Step     7250 ----- CPU =     21.1550 (sec) ----------------
TotEng   =    -25500.8548 KinEng   =     21134.3050 Temp     =       294.7095 
PotEng   =    -46635.1598 E_bond   =      2629.0072 E_angle  =     11061.1370 
E_dihed  =      5312.4675 E_impro  =       224.5865 E_vdwl   =     -1979.8301 
E_coul   =    210334.1404 E_long   =   -274216.6683 Press    =       180.4013 
Volume   =    309528.3463 
---------------- Step     7300 ----- CPU =     21.2957 (sec) ----------------
TotEng   =    -25344.2260 KinEng   =     21462.1341 Temp     =       299.2810 
PotEng   =    -46806.3601 E_bond   =      2610.2648 E_angle  =     10942.9651 
E_dihed  =      5303.5057 E_impro  =       217.0993 E_vdwl   =     -1960.5797 
E_coul   =    210306.7244 E_long   =   -274226.3397 Press    =        45.5255 
Volume   =    309577.4646 
---------------- Step     7350 ----- CPU =     21.4404 (sec) ----------------
TotEng   =    -25153.3536 KinEng   =     21529.1198 Temp     =       300.2150 
PotEng   =    -46682.4734 E_bond   =      2606.2038 E_angle  =     11018.0853 
E_dihed  =      5307.9690 E_impro  =       226.1308 E_vdwl   =     -2112.6178 
E_coul   =    210485.7041 E_long   =   -274213.9486 Press    =      -608.6219 
Volume   =    309714.3105 
---------------- Step     7400 ----- CPU =     21.5802 (sec) ----------------
TotEng   =    -24970.2260 KinEng   =     21693.4391 Temp     =       302.5064 
PotEng   =    -46663.6651 E_bond   =      2595.7494 E_angle  =     11107.0751 
E_dihed  =      5312.2210 E_impro  =       226.9177 E_vdwl   =     -2074.9217 
E_coul   =    210395.5296 E_long   =   -274226.2362 Press    =       168.2629 
Volume   =    309792.6786 
---------------- Step     7450 ----- CPU =     21.7195 (sec) ----------------
TotEng   =    -24934.3162 KinEng   =     21619.1812 Temp     =       301.4709 
PotEng   =    -46553.4974 E_bond   =      2582.3633 E_angle  =     11133.8315 
E_dihed  =      5314.0080 E_impro  =       240.1086 E_vdwl   =     -2034.8344 
E_coul   =    210414.8108 E_long   =   -274203.7852 Press    =      -258.4040 
Volume   =    309796.9354 
---------------- Step     7500 ----- CPU =     21.8592 (sec) ----------------
TotEng   =    -25061.1422 KinEng   =     21463.5898 Temp     =       299.3013 
PotEng   =    -46524.7319 E_bond   =      2586.5004 E_angle  =     11081.5343 
E_dihed  =      5300.9891 E_impro  =       239.6666 E_vdwl   =     -2117.4703 
E_coul   =    210591.4171 E_long   =   -274207.3692 Press    =      -413.6129 
Volume   =    309708.0050 
---------------- Step     7550 ----- CPU =     22.0010 (sec) ----------------
TotEng   =    -25185.4424 KinEng   =     21487.9381 Temp     =       299.6408 
PotEng   =    -46673.3805 E_bond   =      2641.1203 E_angle  =     10993.0021 
E_dihed  =      5250.4906 E_impro  =       217.6056 E_vdwl   =     -2078.1704 
E_coul   =    210509.1306 E_long   =   -274206.5593 Press    =        60.6793 
Volume   =    309505.4466 
---------------- Step     7600 ----- CPU =     22.1403 (sec) ----------------
TotEng   =    -25118.7957 KinEng   =     21471.5501 Temp     =       299.4123 
PotEng   =    -46590.3458 E_bond   =      2631.7876 E_angle  =     11049.8688 
E_dihed  =      5317.6763 E_impro  =       230.3224 E_vdwl   =     -1971.8127 
E_coul   =    210363.3281 E_long   =   -274211.5164 Press    =        22.3096 
Volume   =    309261.9542 
---------------- Step     7650 ----- CPU =     22.2799 (sec) ----------------
TotEng   =    -25001.7663 KinEng   =     21622.5180 Temp     =       301.5174 
PotEng   =    -46624.2843 E_bond   =      2574.4528 E_angle  =     11137.2856 
E_dihed  =      5281.1269 E_impro  =       222.8455 E_vdwl   =     -1836.9448 
E_coul   =    210211.7581 E_long   =   -274214.8084 Press    =       203.2023 
Volume   =    308966.4022 
---------------- Step     7700 ----- CPU =     22.4202 (sec) ----------------
TotEng   =    -25089.0535 KinEng   =     21700.9813 Temp     =       302.6116 
PotEng   =    -46790.0348 E_bond   =      2568.5295 E_angle  =     11042.1329 
E_dihed  =      5331.3996 E_impro  =       231.0243 E_vdwl   =     -1895.4342 
E_coul   =    210137.7465 E_long   =   -274205.4334 Press    =       269.8359 
Volume   =    308855.4181 
---------------- Step     7750 ----- CPU =     22.5633 (sec) ----------------
TotEng   =    -25391.1851 KinEng   =     21451.7471 Temp     =       299.1361 
PotEng   =    -46842.9322 E_bond   =      2574.0804 E_angle  =     11031.2790 
E_dihed  =      5297.3141 E_impro  =       222.8080 E_vdwl   =     -2095.9989 
E_coul   =    210340.6024 E_long   =   -274213.0171 Press    =       151.8454 
Volume   =    308914.0151 
---------------- Step     7800 ----- CPU =     22.7039 (sec) ----------------
TotEng   =    -25491.3009 KinEng   =     21388.5159 Temp     =       298.2544 
PotEng   =    -46879.8169 E_bond   =      2604.6998 E_angle  =     11001.0668 
E_dihed  =      5248.5099 E_impro  =       213.4389 E_vdwl   =     -2007.4174 
E_coul   =    210280.6169 E_long   =   -274220.7319 Press    =      -219.2378 
Volume   =    309017.0034 
---------------- Step     7850 ----- CPU =     22.8448 (sec) ----------------
TotEng   =    -25350.0198 KinEng   =     21375.9557 Temp     =       298.0792 
PotEng   =    -46725.9755 E_bond   =      2533.4740 E_angle  =     11098.9827 
E_dihed  =      5278.8354 E_impro  =       218.3714 E_vdwl   =     -1781.4229 
E_coul   =    210136.8180 E_long   =   -274211.0341 Press    =       702.7221 
Volume   =    308981.7630 
---------------- Step     7900 ----- CPU =     22.9873 (sec) ----------------
TotEng   =    -25143.6057 KinEng   =     21483.5109 Temp     =       299.5790 
PotEng   =    -46627.1166 E_bond   =      2661.5259 E_angle  =     11119.0060 
E_dihed  =      5272.0709 E_impro  =       236.0638 E_vdwl   =     -1983.1373 
E_coul   =    210272.6164 E_long   =   -274205.2624 Press    =      -199.8543 
Volume   =    309084.9100 
---------------- Step     7950 ----- CPU =     23.1266 (sec) ----------------
TotEng   =    -25095.5590 KinEng   =     21644.6391 Temp     =       301.8259 
PotEng   =    -46740.1981 E_bond   =      2657.2634 E_angle  =     11034.7062 
E_dihed  =      5228.1844 E_impro  =       231.6413 E_vdwl   =     -1893.8643 
E_coul   =    210208.2438 E_long   =   -274206.3729 Press    =        73.4376 
Volume   =    309172.1450 
---------------- Step     8000 ----- CPU =     23.2681 (sec) ----------------
TotEng   =    -25184.3167 KinEng   =     21562.3702 Temp     =       300.6787 
PotEng   =    -46746.6870 E_bond   =      2613.8967 E_angle  =     11024.7441 
E_dihed  =      5297.8986 E_impro  =       220.6782 E_vdwl   =     -2225.8583 
E_coul   =    210531.6252 E_long   =   -274209.6716 Press    =        18.2331 
Volume   =    309264.5418 
---------------- Step     8050 ----- CPU =     23.4073 (sec) ----------------
TotEng   =    -25324.6466 KinEng   =     21432.6180 Temp     =       298.8694 
PotEng   =    -46757.2646 E_bond   =      2596.5067 E_angle  =     11114.3598 
E_dihed  =      5317.4185 E_impro  =       223.8538 E_vdwl   =     -2024.3968 
E_coul   =    210224.5993 E_long   =   -274209.6059 Press    =      -178.8105 
Volume   =    309244.4196 
---------------- Step     8100 ----- CPU =     23.5470 (sec) ----------------
TotEng   =    -25419.5056 KinEng   =     21468.5478 Temp     =       299.3704 
PotEng   =    -46888.0534 E_bond   =      2529.9069 E_angle  =     11049.1043 
E_dihed  =      5285.0113 E_impro  =       216.0848 E_vdwl   =     -2125.8711 
E_coul   =    210377.0154 E_long   =   -274219.3050 Press    =       -24.8286 
Volume   =    309218.6071 
---------------- Step     8150 ----- CPU =     23.6890 (sec) ----------------
TotEng   =    -25268.3660 KinEng   =     21450.4291 Temp     =       299.1177 
PotEng   =    -46718.7951 E_bond   =      2616.2804 E_angle  =     11056.5893 
E_dihed  =      5259.4423 E_impro  =       213.7775 E_vdwl   =     -2223.5689 
E_coul   =    210571.7730 E_long   =   -274213.0888 Press    =         5.9482 
Volume   =    309228.6829 
---------------- Step     8200 ----- CPU =     23.8278 (sec) ----------------
TotEng   =    -24968.1328 KinEng   =     21606.9635 Temp     =       301.3005 
PotEng   =    -46575.0963 E_bond   =      2610.5251 E_angle  =     10980.7724 
E_dihed  =      5366.3462 E_impro  =       212.9152 E_vdwl   =     -2162.8505 
E_coul   =    210625.6221 E_long   =   -274208.4268 Press    =        24.1474 
Volume   =    309307.4797 
---------------- Step     8250 ----- CPU =     23.9670 (sec) ----------------
TotEng   =    -24799.9898 KinEng   =     21662.4754 Temp     =       302.0746 
PotEng   =    -46462.4652 E_bond   =      2608.4111 E_angle  =     11046.2400 
E_dihed  =      5361.6633 E_impro  =       222.0589 E_vdwl   =     -1982.7863 
E_coul   =    210489.3365 E_long   =   -274207.3887 Press    =      -119.0840 
Volume   =    309342.8140 
---------------- Step     8300 ----- CPU =     24.1059 (sec) ----------------
TotEng   =    -24915.2506 KinEng   =     21635.6596 Temp     =       301.7007 
PotEng   =    -46550.9102 E_bond   =      2631.0666 E_angle  =     11135.6643 
E_dihed  =      5270.6035 E_impro  =       220.4696 E_vdwl   =     -1977.9142 
E_coul   =    210368.7989 E_long   =   -274199.5989 Press    =       -10.9596 
Volume   =    309422.2015 
---------------- Step     8350 ----- CPU =     24.2482 (sec) ----------------
TotEng   =    -25276.5919 KinEng   =     21408.8921 Temp     =       298.5385 
PotEng   =    -46685.4840 E_bond   =      2591.9285 E_angle  =     11120.9061 
E_dihed  =      5302.8839 E_impro  =       216.3144 E_vdwl   =     -2059.6713 
E_coul   =    210356.2781 E_long   =   -274214.1237 Press    =      -162.5521 
Volume   =    309443.8992 
---------------- Step     8400 ----- CPU =     24.3891 (sec) ----------------
TotEng   =    -25513.8434 KinEng   =     21471.6557 Temp     =       299.4137 
PotEng   =    -46985.4991 E_bond   =      2538.3558 E_angle  =     10893.2527 
E_dihed  =      5301.8336 E_impro  =       209.3248 E_vdwl   =     -2041.7973 
E_coul   =    210342.0039 E_long   =   -274228.4726 Press    =      -147.6363 
Volume   =    309405.2027 
---------------- Step     8450 ----- CPU =     24.5278 (sec) ----------------
TotEng   =    -25443.8225 KinEng   =     21400.4078 Temp     =       298.4202 
PotEng   =    -46844.2303 E_bond   =      2524.4574 E_angle  =     11054.1896 
E_dihed  =      5294.4242 E_impro  =       209.2144 E_vdwl   =     -1896.5682 
E_coul   =    210195.3708 E_long   =   -274225.3185 Press    =       452.5492 
Volume   =    309365.6359 
---------------- Step     8500 ----- CPU =     24.6695 (sec) ----------------
TotEng   =    -25189.8212 KinEng   =     21574.0295 Temp     =       300.8413 
PotEng   =    -46763.8507 E_bond   =      2578.3638 E_angle  =     11071.2120 
E_dihed  =      5303.6144 E_impro  =       234.8320 E_vdwl   =     -1954.7992 
E_coul   =    210213.1260 E_long   =   -274210.1997 Press    =       119.3999 
Volume   =    309407.5888 
---------------- Step     8550 ----- CPU =     24.8081 (sec) ----------------
TotEng   =    -25032.6719 KinEng   =     21588.4083 Temp     =       301.0418 
PotEng   =    -46621.0802 E_bond   =      2571.9675 E_angle  =     11080.7835 
E_dihed  =      5333.2055 E_impro  =       235.1099 E_vdwl   =     -1934.8466 
E_coul   =    210304.3305 E_long   =   -274211.6305 Press    =        68.7295 
Volume   =    309421.1831 
---------------- Step     8600 ----- CPU =     24.9466 (sec) ----------------
TotEng   =    -25084.6172 KinEng   =     21479.9998 Temp     =       299.5301 
PotEng   =    -46564.6170 E_bond   =      2538.4114 E_angle  =     11133.4478 
E_dihed  =      5293.2525 E_impro  =       222.9664 E_vdwl   =     -1969.4453 
E_coul   =    210443.8109 E_long   =   -274227.0606 Press    =        88.5649 
Volume   =    309310.8014 
---------------- Step     8650 ----- CPU =     25.0862 (sec) ----------------
TotEng   =    -25238.7705 KinEng   =     21507.5812 Temp     =       299.9147 
PotEng   =    -46746.3516 E_bond   =      2579.9075 E_angle  =     10998.6787 
E_dihed  =      5269.1355 E_impro  =       219.5242 E_vdwl   =     -1864.0872 
E_coul   =    210275.6684 E_long   =   -274225.1787 Press    =       183.8592 
Volume   =    309196.7242 
---------------- Step     8700 ----- CPU =     25.2288 (sec) ----------------
TotEng   =    -25352.3216 KinEng   =     21443.9595 Temp     =       299.0275 
PotEng   =    -46796.2811 E_bond   =      2620.5839 E_angle  =     11005.2557 
E_dihed  =      5291.1505 E_impro  =       216.8800 E_vdwl   =     -2003.7001 
E_coul   =    210290.4121 E_long   =   -274216.8633 Press    =      -310.6172 
Volume   =    309182.4090 
---------------- Step     8750 ----- CPU =     25.3684 (sec) ----------------
TotEng   =    -25304.6190 KinEng   =     21529.5972 Temp     =       300.2217 
PotEng   =    -46834.2161 E_bond   =      2563.7377 E_angle  =     10958.9762 
E_dihed  =      5263.5413 E_impro  =       235.9126 E_vdwl   =     -1969.4298 
E_coul   =    210333.7200 E_long   =   -274220.6741 Press    =        33.8459 
Volume   =    309018.4831 
---------------- Step     8800 ----- CPU =     25.5080 (sec) ----------------
TotEng   =    -25109.4211 KinEng   =     21580.3890 Temp     =       300.9300 
PotEng   =    -46689.8102 E_bond   =      2554.8494 E_angle  =     11109.0924 
E_dihed  =      5306.0173 E_impro  =       216.2980 E_vdwl   =     -1880.9787 
E_coul   =    210233.8029 E_long   =   -274228.8915 Press    =       219.9473 
Volume   =    308948.0025 
---------------- Step     8850 ----- CPU =     25.6505 (sec) ----------------
TotEng   =    -24945.7795 KinEng   =     21596.8728 Temp     =       301.1598 
PotEng   =    -46542.6523 E_bond   =      2624.0667 E_angle  =     11216.0741 
E_dihed  =      5280.2667 E_impro  =       228.7076 E_vdwl   =     -2030.2497 
E_coul   =    210362.9713 E_long   =   -274224.4889 Press    =      -549.1321 
Volume   =    309068.5398 
---------------- Step     8900 ----- CPU =     25.7900 (sec) ----------------
TotEng   =    -25063.8366 KinEng   =     21587.3732 Temp     =       301.0274 
PotEng   =    -46651.2098 E_bond   =      2591.7922 E_angle  =     11190.0971 
E_dihed  =      5304.0391 E_impro  =       221.4698 E_vdwl   =     -2094.7450 
E_coul   =    210366.6262 E_long   =   -274230.4891 Press    =        56.1705 
Volume   =    309139.2774 
---------------- Step     8950 ----- CPU =     25.9309 (sec) ----------------
TotEng   =    -25327.2091 KinEng   =     21432.5485 Temp     =       298.8684 
PotEng   =    -46759.7576 E_bond   =      2528.8061 E_angle  =     11137.1313 
E_dihed  =      5256.6824 E_impro  =       207.7349 E_vdwl   =     -2115.3327 
E_coul   =    210445.4062 E_long   =   -274220.1858 Press    =       178.5082 
Volume   =    309325.5865 
---------------- Step     9000 ----- CPU =     26.0704 (sec) ----------------
TotEng   =    -25426.7485 KinEng   =     21248.3156 Temp     =       296.2993 
PotEng   =    -46675.0641 E_bond   =      2556.8777 E_angle  =     11098.6405 
E_dihed  =      5301.0651 E_impro  =       224.5683 E_vdwl   =     -2233.3932 
E_coul   =    210600.1259 E_long   =   -274222.9484 Press    =      -263.7384 
Volume   =    309469.9269 
---------------- Step     9050 ----- CPU =     26.2099 (sec) ----------------
TotEng   =    -25199.9067 KinEng   =     21562.8141 Temp     =       300.6849 
PotEng   =    -46762.7208 E_bond   =      2611.6731 E_angle  =     11076.1237 
E_dihed  =      5245.3771 E_impro  =       224.0954 E_vdwl   =     -2190.6870 
E_coul   =    210482.9024 E_long   =   -274212.2056 Press    =      -389.8758 
Volume   =    309491.2582 
---------------- Step     9100 ----- CPU =     26.3491 (sec) ----------------
TotEng   =    -24948.3214 KinEng   =     21508.8188 Temp     =       299.9320 
PotEng   =    -46457.1402 E_bond   =      2571.2310 E_angle  =     11275.6940 
E_dihed  =      5238.5951 E_impro  =       228.5721 E_vdwl   =     -2030.6870 
E_coul   =    210465.0639 E_long   =   -274205.6093 Press    =       120.7826 
Volume   =    309420.1207 
---------------- Step     9150 ----- CPU =     26.4881 (sec) ----------------
TotEng   =    -24912.9017 KinEng   =     21728.1789 Temp     =       302.9908 
PotEng   =    -46641.0806 E_bond   =      2566.8540 E_angle  =     11059.1726 
E_dihed  =      5247.4772 E_impro  =       217.0772 E_vdwl   =     -1718.1686 
E_coul   =    210200.2418 E_long   =   -274213.7348 Press    =       333.8795 
Volume   =    309334.8967 
---------------- Step     9200 ----- CPU =     26.6306 (sec) ----------------
TotEng   =    -25165.9471 KinEng   =     21537.3341 Temp     =       300.3296 
PotEng   =    -46703.2812 E_bond   =      2593.9882 E_angle  =     11111.9081 
E_dihed  =      5261.5281 E_impro  =       231.3443 E_vdwl   =     -2004.0036 
E_coul   =    210335.8049 E_long   =   -274233.8511 Press    =       -82.5520 
Volume   =    309456.8087 
---------------- Step     9250 ----- CPU =     26.7708 (sec) ----------------
TotEng   =    -25376.4156 KinEng   =     21248.3874 Temp     =       296.3003 
PotEng   =    -46624.8030 E_bond   =      2638.5277 E_angle  =     11022.7394 
E_dihed  =      5284.6217 E_impro  =       238.9552 E_vdwl   =     -2117.4451 
E_coul   =    210530.0369 E_long   =   -274222.2389 Press    =      -498.4599 
Volume   =    309521.2626 
---------------- Step     9300 ----- CPU =     26.9107 (sec) ----------------
TotEng   =    -25380.2057 KinEng   =     21521.9076 Temp     =       300.1145 
PotEng   =    -46902.1133 E_bond   =      2643.3613 E_angle  =     10994.5350 
E_dihed  =      5278.8395 E_impro  =       248.6174 E_vdwl   =     -2044.8593 
E_coul   =    210191.7733 E_long   =   -274214.3805 Press    =       -44.2293 
Volume   =    309298.3329 
---------------- Step     9350 ----- CPU =     27.0504 (sec) ----------------
TotEng   =    -25210.1437 KinEng   =     21498.0840 Temp     =       299.7823 
PotEng   =    -46708.2277 E_bond   =      2605.2321 E_angle  =     11094.2561 
E_dihed  =      5355.5189 E_impro  =       222.2055 E_vdwl   =     -1902.1770 
E_coul   =    210131.9497 E_long   =   -274215.2130 Press    =       484.2361 
Volume   =    309064.3468 
---------------- Step     9400 ----- CPU =     27.1968 (sec) ----------------
TotEng   =    -25015.0669 KinEng   =     21729.6267 Temp     =       303.0110 
PotEng   =    -46744.6936 E_bond   =      2572.5951 E_angle  =     11078.8990 
E_dihed  =      5350.4718 E_impro  =       225.2562 E_vdwl   =     -1947.2585 
E_coul   =    210195.1419 E_long   =   -274219.7993 Press    =       -46.5756 
Volume   =    308985.0517 
---------------- Step     9450 ----- CPU =     27.3369 (sec) ----------------
TotEng   =    -24972.4736 KinEng   =     21607.8759 Temp     =       301.3133 
PotEng   =    -46580.3495 E_bond   =      2637.3744 E_angle  =     11133.5006 
E_dihed  =      5345.4715 E_impro  =       235.2100 E_vdwl   =     -2109.5831 
E_coul   =    210392.1386 E_long   =   -274214.4615 Press    =      -140.7468 
Volume   =    309084.8376 
---------------- Step     9500 ----- CPU =     27.4766 (sec) ----------------
TotEng   =    -25100.4724 KinEng   =     21607.8988 Temp     =       301.3136 
PotEng   =    -46708.3712 E_bond   =      2656.9308 E_angle  =     11180.6708 
E_dihed  =      5289.4936 E_impro  =       224.6239 E_vdwl   =     -2190.7503 
E_coul   =    210358.1388 E_long   =   -274227.4787 Press    =      -445.3108 
Volume   =    309150.5326 
---------------- Step     9550 ----- CPU =     27.6176 (sec) ----------------
TotEng   =    -25329.2695 KinEng   =     21376.5279 Temp     =       298.0872 
PotEng   =    -46705.7974 E_bond   =      2590.1313 E_angle  =     11045.0936 
E_dihed  =      5289.4987 E_impro  =       230.6758 E_vdwl   =     -2037.3983 
E_coul   =    210405.5175 E_long   =   -274229.3160 Press    =       -51.3822 
Volume   =    309124.4034 
---------------- Step     9600 ----- CPU =     27.7602 (sec) ----------------
TotEng   =    -25437.7220 KinEng   =     21400.1220 Temp     =       298.4162 
PotEng   =    -46837.8440 E_bond   =      2592.7969 E_angle  =     11121.5563 
E_dihed  =      5271.6198 E_impro  =       225.3706 E_vdwl   =     -2095.7987 
E_coul   =    210260.2900 E_long   =   -274213.6789 Press    =        26.2811 
Volume   =    308898.7904 
---------------- Step     9650 ----- CPU =     27.8999 (sec) ----------------
TotEng   =    -25376.4480 KinEng   =     21575.6807 Temp     =       300.8643 
PotEng   =    -46952.1288 E_bond   =      2664.4861 E_angle  =     11086.4025 
E_dihed  =      5200.0310 E_impro  =       222.2221 E_vdwl   =     -1997.2910 
E_coul   =    210100.2994 E_long   =   -274228.2788 Press    =        12.0874 
Volume   =    308563.3313 
---------------- Step     9700 ----- CPU =     28.0405 (sec) ----------------
TotEng   =    -25307.3688 KinEng   =     21590.5597 Temp     =       301.0718 
PotEng   =    -46897.9285 E_bond   =      2616.9365 E_angle  =     10988.9497 
E_dihed  =      5252.1412 E_impro  =       230.2472 E_vdwl   =     -1858.5838 
E_coul   =    210092.6018 E_long   =   -274220.2211 Press    =        65.5059 
Volume   =    308284.9569 
---------------- Step     9750 ----- CPU =     28.1831 (sec) ----------------
TotEng   =    -25227.7467 KinEng   =     21482.1925 Temp     =       299.5607 
PotEng   =    -46709.9391 E_bond   =      2648.2778 E_angle  =     11158.8197 
E_dihed  =      5248.7625 E_impro  =       231.4909 E_vdwl   =     -1995.3287 
E_coul   =    210219.9527 E_long   =   -274221.9140 Press    =        -9.3295 
Volume   =    308086.8567 
---------------- Step     9800 ----- CPU =     28.3236 (sec) ----------------
TotEng   =    -25213.3535 KinEng   =     21584.3923 Temp     =       300.9858 
PotEng   =    -46797.7458 E_bond   =      2585.6202 E_angle  =     11052.7473 
E_dihed  =      5243.2929 E_impro  =       228.6128 E_vdwl   =     -1969.6980 
E_coul   =    210288.1742 E_long   =   -274226.4952 Press    =        70.2567 
Volume   =    308005.7895 
---------------- Step     9850 ----- CPU =     28.4659 (sec) ----------------
TotEng   =    -25225.6568 KinEng   =     21590.5920 Temp     =       301.0723 
PotEng   =    -46816.2488 E_bond   =      2616.4340 E_angle  =     11035.0461 
E_dihed  =      5304.4071 E_impro  =       208.2793 E_vdwl   =     -1971.3436 
E_coul   =    210210.3431 E_long   =   -274219.4148 Press    =       170.9968 
Volume   =    308097.8751 
---------------- Step     9900 ----- CPU =     28.6088 (sec) ----------------
TotEng   =    -25249.6911 KinEng   =     21519.0167 Temp     =       300.0742 
PotEng   =    -46768.7078 E_bond   =      2658.1220 E_angle  =     11036.3470 
E_dihed  =      5216.3625 E_impro  =       226.5158 E_vdwl   =     -2248.3888 
E_coul   =    210559.9492 E_long   =   -274217.6155 Press    =      -120.9055 
Volume   =    308312.8576 
---------------- Step     9950 ----- CPU =     28.7487 (sec) ----------------
TotEng   =    -25245.8875 KinEng   =     21580.7838 Temp     =       300.9355 
PotEng   =    -46826.6712 E_bond   =      2575.8466 E_angle  =     11104.6461 
E_dihed  =      5268.8966 E_impro  =       221.9824 E_vdwl   =     -2212.9664 
E_coul   =    210433.5127 E_long   =   -274218.5893 Press    =      -244.4781 
Volume   =    308392.3074 
---------------- Step    10000 ----- CPU =     28.8897 (sec) ----------------
TotEng   =    -25250.3319 KinEng   =     21471.0567 Temp     =       299.4054 
PotEng   =    -46721.3886 E_bond   =      2561.1379 E_angle  =     11181.5174 
E_dihed  =      5216.9251 E_impro  =       215.4957 E_vdwl   =     -2142.5189 
E_coul   =    210467.9984 E_long   =   -274221.9441 Press    =       111.2473 
Volume   =    308435.2498 
Loop time of 28.8897 on 32 procs for 10000 steps with 32000 atoms

Performance: 59.814 ns/day, 0.401 hours/ns, 346.144 timesteps/s
98.0% CPU use with 32 MPI tasks x 1 OpenMP threads

MPI task timing breakdown:
Section |  min time  |  avg time  |  max time  |%varavg| %total
---------------------------------------------------------------
Pair    | 13.128     | 14.439     | 15.398     |  13.3 | 49.98
Bond    | 0.22977    | 0.89415    | 1.3822     |  47.2 |  3.10
Kspace  | 4.5675     | 5.5698     | 6.6354     |  20.1 | 19.28
Neigh   | 2.1747     | 2.1809     | 2.187      |   0.2 |  7.55
Comm    | 1.7715     | 1.8385     | 1.9178     |   2.8 |  6.36
Output  | 0.0087754  | 0.0089648  | 0.012405   |   0.7 |  0.03
Modify  | 3.5508     | 3.7081     | 3.8569     |   4.0 | 12.84
Other   |            | 0.2498     |            |       |  0.86

Nlocal:           1000 ave        1063 max         933 min
Histogram: 1 2 1 6 4 6 7 3 1 1
Nghost:        8734.38 ave        8829 max        8657 min
Histogram: 2 2 5 5 5 6 2 3 1 1
Neighs:         375536 ave      408800 max      343499 min
Histogram: 3 2 2 6 6 3 2 4 2 2

Total # of neighbors = 12017144
Ave neighs/atom = 375.53575
Ave special neighs/atom = 7.431875
Neighbor list builds = 1070
Dangerous builds = 0
Total wall time: 0:00:29
Intel(R) VTune(TM) Profiler 2022.2.0 collection completed successfully. Use the "aps --report /home/ubuntu/lammps/bench/aps_result_20220703" command to generate textual and HTML reports for the profiling session.
