LAMMPS (7 Jan 2022)
  using 1 OpenMP thread(s) per MPI task
Reading data file ...
  orthogonal box = (-27.5 -38.5 -36.3646) to (27.5 38.5 36.3615)
  2 by 4 by 4 MPI processor grid
  reading atoms ...
  32000 atoms
  reading velocities ...
  32000 velocities
  scanning bonds ...
  4 = max bonds/atom
  scanning angles ...
  8 = max angles/atom
  scanning dihedrals ...
  18 = max dihedrals/atom
  scanning impropers ...
  2 = max impropers/atom
  reading bonds ...
  27723 bonds
  reading angles ...
  40467 angles
  reading dihedrals ...
  56829 dihedrals
  reading impropers ...
  1034 impropers
Finding 1-2 1-3 1-4 neighbors ...
  special bond factors lj:    0        0        0       
  special bond factors coul:  0        0        0       
     4 = max # of 1-2 neighbors
    12 = max # of 1-3 neighbors
    24 = max # of 1-4 neighbors
    26 = max # of special neighbors
  special bonds CPU = 0.014 seconds
  read_data CPU = 0.488 seconds
Replicating atoms ...
  orthogonal box = (-27.5 -38.5 -36.3646) to (192.5 269.5 254.5398)
  2 by 4 by 4 MPI processor grid
  2048000 atoms
  1774272 bonds
  2589888 angles
  3637056 dihedrals
  66176 impropers
Finding 1-2 1-3 1-4 neighbors ...
  special bond factors lj:    0        0        0       
  special bond factors coul:  0        0        0       
     4 = max # of 1-2 neighbors
    12 = max # of 1-3 neighbors
    24 = max # of 1-4 neighbors
    26 = max # of special neighbors
  special bonds CPU = 0.098 seconds
  replicate CPU = 0.237 seconds
Finding SHAKE clusters ...
  103488 = # of size 2 clusters
  232512 = # of size 3 clusters
   47808 = # of size 4 clusters
  270912 = # of frozen angles
  find clusters CPU = 0.058 seconds
PPPM initialization ...
  using 12-bit tables for long-range coulomb (../kspace.cpp:340)
  G vector (1/distance) = 0.25045586
  grid = 90 120 120
  stencil order = 7
  estimated absolute RMS force accuracy = 0.032785255
  estimated relative force accuracy = 9.8731821e-05
  using single precision MKL FFT
  3d grid and FFT values/proc = 71188 43200
----------------------------------------------------------
Using INTEL Package without Coprocessor.
Compiler: Intel Classic C++ 20.21.5 / Intel(R) C++ g++ 9.3 mode
SIMD compiler directives: Enabled
Precision: mixed
----------------------------------------------------------
  generated 2278 of 2278 mixed pair_coeff terms from arithmetic mixing rule
Neighbor list info ...
  update every 1 steps, delay 5 steps, check yes
  max neighbors/atom: 2000, page size: 100000
  master list distance cutoff = 12
  ghost atom cutoff = 12
  binsize = 6, bins = 37 52 49
  1 neighbor lists, perpetual/occasional/extra = 1 0 0
  (1) pair lj/charmm/coul/long/intel, perpetual
      attributes: half, newton on, intel
      pair build: half/bin/newton/intel
      stencil: half/bin/3d
      bin: intel
Setting up Verlet run ...
  Unit style    : real
  Current step  : 0
  Time step     : 2
Per MPI rank memory allocation (min/avg/max) = 717.6 | 717.7 | 717.8 Mbytes
---------------- Step        0 ----- CPU =      0.0000 (sec) ----------------
TotEng   =  -1622915.6798 KinEng   =   1372469.2022 Temp     =       299.0274 
PotEng   =  -2995384.8820 E_bond   =    162431.7410 E_angle  =    698967.9457 
E_dihed  =    333554.2808 E_impro  =     13664.8915 E_vdwl   =   -147703.2770 
E_coul   =  13362001.3166 E_long   = -17418301.7807 Press    =      -148.3958 
Volume   =  19711682.1440 
---------------- Step       50 ----- CPU =     14.1507 (sec) ----------------
TotEng   =  -1621183.6607 KinEng   =   1376067.8767 Temp     =       299.8115 
PotEng   =  -2997251.5374 E_bond   =    158192.9657 E_angle  =    693548.5978 
E_dihed  =    335338.8800 E_impro  =     14535.9478 E_vdwl   =   -127558.7771 
E_coul   =  13347432.7104 E_long   = -17418741.8619 Press    =       238.9872 
Volume   =  19714046.0026 
---------------- Step      100 ----- CPU =     28.5025 (sec) ----------------
TotEng   =  -1618557.7252 KinEng   =   1381768.2255 Temp     =       301.0535 
PotEng   =  -3000325.9507 E_bond   =    164353.2781 E_angle  =    690067.5515 
E_dihed  =    332721.4743 E_impro  =     13872.9111 E_vdwl   =   -121547.6266 
E_coul   =  13338615.7854 E_long   = -17418409.3244 Press    =        13.8285 
Volume   =  19720671.9016 
Loop time of 28.5026 on 32 procs for 100 steps with 2048000 atoms

Performance: 0.606 ns/day, 39.587 hours/ns, 3.508 timesteps/s
87.8% CPU use with 32 MPI tasks x 1 OpenMP threads

MPI task timing breakdown:
Section |  min time  |  avg time  |  max time  |%varavg| %total
---------------------------------------------------------------
Pair    | 8.9        | 9.3602     | 17.923     |  50.3 | 32.84
Bond    | 0.56591    | 0.59395    | 0.93288    |   7.9 |  2.08
Kspace  | 2.9545     | 11.981     | 12.5       |  46.9 | 42.03
Neigh   | 2.1812     | 2.2673     | 2.2785     |   1.1 |  7.95
Comm    | 0.95946    | 1.1714     | 1.3242     |  11.2 |  4.11
Output  | 0.0004188  | 0.00046253 | 0.00055979 |   0.0 |  0.00
Modify  | 2.6079     | 2.7926     | 3.1508     |   6.0 |  9.80
Other   |            | 0.3359     |            |       |  1.18

Nlocal:          64000 ave       64001 max       63999 min
Histogram: 3 0 0 0 0 26 0 0 0 3
Nghost:          71599 ave       71600 max       71598 min
Histogram: 3 0 0 0 0 26 0 0 0 3
Neighs:    2.40561e+07 ave 2.40968e+07 max 2.40142e+07 min
Histogram: 8 0 0 8 0 0 8 0 0 8

Total # of neighbors = 7.6979421e+08
Ave neighs/atom = 375.87608
Ave special neighs/atom = 7.431875
Neighbor list builds = 11
Dangerous builds = 0
Total wall time: 0:00:30
Intel(R) VTune(TM) Profiler 2022.2.0 collection completed successfully. Use the "aps --report /home/ubuntu/lammps/bench/aps_result_20220526" command to generate textual and HTML reports for the profiling session.
