LAMMPS (7 Jan 2022)
  using 1 OpenMP thread(s) per MPI task
Reading data file ...
  orthogonal box = (-27.5 -38.5 -36.3646) to (27.5 38.5 36.3615)
  4 by 4 by 4 MPI processor grid
  reading atoms ...
  32000 atoms
  reading velocities ...
  32000 velocities
  scanning bonds ...
  4 = max bonds/atom
  scanning angles ...
  8 = max angles/atom
  scanning dihedrals ...
  18 = max dihedrals/atom
  scanning impropers ...
  2 = max impropers/atom
  reading bonds ...
  27723 bonds
  reading angles ...
  40467 angles
  reading dihedrals ...
  56829 dihedrals
  reading impropers ...
  1034 impropers
Finding 1-2 1-3 1-4 neighbors ...
  special bond factors lj:    0        0        0       
  special bond factors coul:  0        0        0       
     4 = max # of 1-2 neighbors
    12 = max # of 1-3 neighbors
    24 = max # of 1-4 neighbors
    26 = max # of special neighbors
  special bonds CPU = 0.016 seconds
  read_data CPU = 0.234 seconds
Replicating atoms ...
  orthogonal box = (-27.5 -38.5 -36.3646) to (192.5 269.5 254.5398)
  4 by 4 by 4 MPI processor grid
  2048000 atoms
  1774272 bonds
  2589888 angles
  3637056 dihedrals
  66176 impropers
Finding 1-2 1-3 1-4 neighbors ...
  special bond factors lj:    0        0        0       
  special bond factors coul:  0        0        0       
     4 = max # of 1-2 neighbors
    12 = max # of 1-3 neighbors
    24 = max # of 1-4 neighbors
    26 = max # of special neighbors
  special bonds CPU = 0.054 seconds
  replicate CPU = 0.108 seconds
Finding SHAKE clusters ...
  103488 = # of size 2 clusters
  232512 = # of size 3 clusters
   47808 = # of size 4 clusters
  270912 = # of frozen angles
  find clusters CPU = 0.025 seconds
PPPM initialization ...
  using 12-bit tables for long-range coulomb (../kspace.cpp:340)
  G vector (1/distance) = 0.28975108
  grid = 128 180 160
  stencil order = 7
  estimated absolute RMS force accuracy = 0.0039244534
  estimated relative force accuracy = 1.1818375e-05
  using single precision MKL FFT
  3d grid and FFT values/proc = 108486 69120
----------------------------------------------------------
Using INTEL Package without Coprocessor.
Compiler: Intel Classic C++ 20.21.5 / Intel(R) C++ g++ 9.3 mode
SIMD compiler directives: Enabled
Precision: mixed
----------------------------------------------------------
  generated 2278 of 2278 mixed pair_coeff terms from arithmetic mixing rule
Neighbor list info ...
  update every 1 steps, delay 5 steps, check yes
  max neighbors/atom: 2000, page size: 100000
  master list distance cutoff = 12
  ghost atom cutoff = 12
  binsize = 6, bins = 37 52 49
  1 neighbor lists, perpetual/occasional/extra = 1 0 0
  (1) pair lj/charmm/coul/long/intel, perpetual
      attributes: half, newton on, intel
      pair build: half/bin/newton/intel
      stencil: half/bin/3d
      bin: intel
Setting up Verlet run ...
  Unit style    : real
  Current step  : 0
  Time step     : 2
Per MPI rank memory allocation (min/avg/max) = 373 | 373.4 | 373.9 Mbytes
---------------- Step        0 ----- CPU =      0.0000 (sec) ----------------
TotEng   =  -1622981.6037 KinEng   =   1372469.2022 Temp     =       299.0274 
PotEng   =  -2995450.8059 E_bond   =    162431.7411 E_angle  =    698967.9457 
E_dihed  =    333554.2808 E_impro  =     13664.8915 E_vdwl   =   -147703.2770 
E_coul   =  16082009.6991 E_long   = -20138376.0872 Press    =      -152.4314 
Volume   =  19711682.1440 
---------------- Step       50 ----- CPU =      5.0988 (sec) ----------------
TotEng   =  -1621306.2128 KinEng   =   1376080.7602 Temp     =       299.8143 
PotEng   =  -2997386.9730 E_bond   =    158188.5967 E_angle  =    693553.2982 
E_dihed  =    335327.5365 E_impro  =     14536.7006 E_vdwl   =   -127532.3608 
E_coul   =  16067598.0733 E_long   = -20139058.8174 Press    =       235.1499 
Volume   =  19713998.0183 
---------------- Step      100 ----- CPU =     10.0599 (sec) ----------------
TotEng   =  -1618418.4798 KinEng   =   1381780.9024 Temp     =       301.0562 
PotEng   =  -3000199.3821 E_bond   =    164348.3558 E_angle  =    690028.2114 
E_dihed  =    332711.6229 E_impro  =     13873.3246 E_vdwl   =   -121634.4740 
E_coul   =  16059104.8656 E_long   = -20138631.2885 Press    =        12.3890 
Volume   =  19720507.7530 
Loop time of 10.06 on 64 procs for 100 steps with 2048000 atoms

Performance: 1.718 ns/day, 13.972 hours/ns, 9.940 timesteps/s
98.4% CPU use with 64 MPI tasks x 1 OpenMP threads

MPI task timing breakdown:
Section |  min time  |  avg time  |  max time  |%varavg| %total
---------------------------------------------------------------
Pair    | 5.0648     | 5.1855     | 5.3538     |   3.7 | 51.55
Bond    | 0.32072    | 0.33358    | 0.34422    |   1.0 |  3.32
Kspace  | 1.5779     | 1.7395     | 1.8549     |   6.5 | 17.29
Neigh   | 0.66017    | 0.66354    | 0.66579    |   0.2 |  6.60
Comm    | 0.52483    | 0.5846     | 0.63927    |   5.7 |  5.81
Output  | 0.00031056 | 0.00032264 | 0.00039242 |   0.0 |  0.00
Modify  | 1.3086     | 1.4212     | 1.546      |   8.1 | 14.13
Other   |            | 0.1317     |            |       |  1.31

Nlocal:          32000 ave       32000 max       32000 min
Histogram: 64 0 0 0 0 0 0 0 0 0
Nghost:          47943 ave       47943 max       47943 min
Histogram: 64 0 0 0 0 0 0 0 0 0
Neighs:     1.2028e+07 ave 1.20482e+07 max 1.20071e+07 min
Histogram: 16 0 0 16 0 0 16 0 0 16

Total # of neighbors = 7.6979416e+08
Ave neighs/atom = 375.87605
Ave special neighs/atom = 7.431875
Neighbor list builds = 11
Dangerous builds = 0
Total wall time: 0:00:10
Intel(R) VTune(TM) Profiler 2022.2.0 collection completed successfully. Use the "aps --report /home/ubuntu/lammps/bench/aps_result_20220601" command to generate textual and HTML reports for the profiling session.
