LAMMPS (7 Jan 2022)
  using 1 OpenMP thread(s) per MPI task
Reading data file ...
  orthogonal box = (-27.5 -38.5 -36.3646) to (27.5 38.5 36.3615)
  1 by 2 by 1 MPI processor grid
  reading atoms ...
  32000 atoms
  reading velocities ...
  32000 velocities
  scanning bonds ...
  4 = max bonds/atom
  scanning angles ...
  8 = max angles/atom
  scanning dihedrals ...
  18 = max dihedrals/atom
  scanning impropers ...
  2 = max impropers/atom
  reading bonds ...
  27723 bonds
  reading angles ...
  40467 angles
  reading dihedrals ...
  56829 dihedrals
  reading impropers ...
  1034 impropers
Finding 1-2 1-3 1-4 neighbors ...
  special bond factors lj:    0        0        0       
  special bond factors coul:  0        0        0       
     4 = max # of 1-2 neighbors
    12 = max # of 1-3 neighbors
    24 = max # of 1-4 neighbors
    26 = max # of special neighbors
  special bonds CPU = 0.023 seconds
  read_data CPU = 0.371 seconds
Finding SHAKE clusters ...
    1617 = # of size 2 clusters
    3633 = # of size 3 clusters
     747 = # of size 4 clusters
    4233 = # of frozen angles
  find clusters CPU = 0.004 seconds
Ewald initialization ...
  using 12-bit tables for long-range coulomb (../kspace.cpp:340)
  G vector (1/distance) = 0.24317651
  estimated absolute RMS force accuracy = 0.038892646
  estimated relative force accuracy = 0.00011712405
  KSpace vectors: actual max1d max3d = 5154 15 14895
                  kxmax kymax kzmax  = 11 15 14
----------------------------------------------------------
Using INTEL Package without Coprocessor.
Compiler: Intel Classic C++ 20.21.5 / Intel(R) C++ g++ 9.3 mode
SIMD compiler directives: Enabled
Precision: mixed
----------------------------------------------------------
  generated 2278 of 2278 mixed pair_coeff terms from arithmetic mixing rule
Neighbor list info ...
  update every 1 steps, delay 5 steps, check yes
  max neighbors/atom: 2000, page size: 100000
  master list distance cutoff = 12
  ghost atom cutoff = 12
  binsize = 6, bins = 10 13 13
  1 neighbor lists, perpetual/occasional/extra = 1 0 0
  (1) pair lj/charmm/coul/long/intel, perpetual
      attributes: half, newton on, intel
      pair build: half/bin/newton/intel
      stencil: half/bin/3d
      bin: intel
Setting up Verlet run ...
  Unit style    : real
  Current step  : 0
  Time step     : 2
Per MPI rank memory allocation (min/avg/max) = 303.7 | 304.5 | 305.3 Mbytes
---------------- Step        0 ----- CPU =      0.0000 (sec) ----------------
TotEng   =    -25359.1382 KinEng   =     21444.8313 Temp     =       299.0397 
PotEng   =    -46803.9695 E_bond   =      2537.9949 E_angle  =     10921.3721 
E_dihed  =      5211.7865 E_impro  =       213.5135 E_vdwl   =     -2307.8639 
E_coul   =    200896.8670 E_long   =   -264277.6397 Press    =      -144.5718 
Volume   =    307995.0335 
---------------- Step       50 ----- CPU =     36.7063 (sec) ----------------
TotEng   =    -25332.7383 KinEng   =     21500.7470 Temp     =       299.8194 
PotEng   =    -46833.4853 E_bond   =      2471.7818 E_angle  =     10836.5276 
E_dihed  =      5239.7010 E_impro  =       227.1089 E_vdwl   =     -1993.4961 
E_coul   =    200668.6044 E_long   =   -264283.7129 Press    =       241.5837 
Volume   =    308033.0098 
---------------- Step      100 ----- CPU =     73.4904 (sec) ----------------
TotEng   =    -25294.9997 KinEng   =     21590.4666 Temp     =       301.0705 
PotEng   =    -46885.4663 E_bond   =      2568.1617 E_angle  =     10781.9115 
E_dihed  =      5198.5932 E_impro  =       216.7233 E_vdwl   =     -1899.5704 
E_coul   =    200527.5560 E_long   =   -264278.8415 Press    =        12.5148 
Volume   =    308139.1425 
---------------- Step      150 ----- CPU =    110.2088 (sec) ----------------
TotEng   =    -25263.9212 KinEng   =     21517.8409 Temp     =       300.0578 
PotEng   =    -46781.7621 E_bond   =      2556.1262 E_angle  =     10853.3161 
E_dihed  =      5264.7793 E_impro  =       203.1920 E_vdwl   =     -2074.0540 
E_coul   =    200687.9667 E_long   =   -264273.0884 Press    =       245.5334 
Volume   =    308525.4253 
---------------- Step      200 ----- CPU =    147.0347 (sec) ----------------
TotEng   =    -25091.5880 KinEng   =     21523.1642 Temp     =       300.1320 
PotEng   =    -46614.7522 E_bond   =      2488.5557 E_angle  =     11071.1626 
E_dihed  =      5222.0533 E_impro  =       232.9408 E_vdwl   =     -2119.3201 
E_coul   =    200768.9458 E_long   =   -264279.0903 Press    =        83.3279 
Volume   =    309006.7474 
---------------- Step      250 ----- CPU =    183.8435 (sec) ----------------
TotEng   =    -24956.1634 KinEng   =     21606.8922 Temp     =       301.2995 
PotEng   =    -46563.0556 E_bond   =      2541.2676 E_angle  =     11112.5913 
E_dihed  =      5239.4679 E_impro  =       212.7551 E_vdwl   =     -2208.9131 
E_coul   =    200833.2330 E_long   =   -264293.4574 Press    =      -206.2998 
Volume   =    309413.6215 
---------------- Step      300 ----- CPU =    220.6189 (sec) ----------------
TotEng   =    -24997.4975 KinEng   =     21610.3349 Temp     =       301.3476 
PotEng   =    -46607.8324 E_bond   =      2569.0644 E_angle  =     10940.6682 
E_dihed  =      5222.9350 E_impro  =       220.6630 E_vdwl   =     -2258.3463 
E_coul   =    200959.6743 E_long   =   -264262.4910 Press    =      -443.6840 
Volume   =    309705.7414 
---------------- Step      350 ----- CPU =    257.4846 (sec) ----------------
TotEng   =    -25203.0688 KinEng   =     21456.2934 Temp     =       299.1995 
PotEng   =    -46659.3622 E_bond   =      2584.7871 E_angle  =     10957.0867 
E_dihed  =      5257.8077 E_impro  =       212.6387 E_vdwl   =     -2154.1908 
E_coul   =    200750.8560 E_long   =   -264268.3477 Press    =      -437.2704 
Volume   =    309852.6245 
---------------- Step      400 ----- CPU =    294.3015 (sec) ----------------
TotEng   =    -25345.6958 KinEng   =     21389.4587 Temp     =       298.2675 
PotEng   =    -46735.1545 E_bond   =      2541.1935 E_angle  =     10942.9343 
E_dihed  =      5212.7622 E_impro  =       215.3137 E_vdwl   =     -2181.6078 
E_coul   =    200815.3638 E_long   =   -264281.1142 Press    =        82.7382 
Volume   =    309862.1999 
---------------- Step      450 ----- CPU =    331.0634 (sec) ----------------
TotEng   =    -25289.0224 KinEng   =     21367.0842 Temp     =       297.9555 
PotEng   =    -46656.1065 E_bond   =      2517.3344 E_angle  =     10866.6585 
E_dihed  =      5261.7460 E_impro  =       223.1912 E_vdwl   =     -2071.4830 
E_coul   =    200823.1488 E_long   =   -264276.7025 Press    =       288.0142 
Volume   =    309871.4638 
---------------- Step      500 ----- CPU =    367.8219 (sec) ----------------
TotEng   =    -24978.8658 KinEng   =     21556.8105 Temp     =       300.6012 
PotEng   =    -46535.6764 E_bond   =      2602.2377 E_angle  =     10959.2455 
E_dihed  =      5253.8889 E_impro  =       212.9591 E_vdwl   =     -2101.9952 
E_coul   =    200799.8465 E_long   =   -264261.8588 Press    =      -247.1816 
Volume   =    309937.0011 
---------------- Step      550 ----- CPU =    404.5473 (sec) ----------------
TotEng   =    -24758.0530 KinEng   =     21732.0355 Temp     =       303.0446 
PotEng   =    -46490.0885 E_bond   =      2565.6617 E_angle  =     10949.2594 
E_dihed  =      5231.1771 E_impro  =       228.6555 E_vdwl   =     -2045.5509 
E_coul   =    200850.8458 E_long   =   -264270.1371 Press    =       309.7255 
Volume   =    310104.5258 
---------------- Step      600 ----- CPU =    441.3954 (sec) ----------------
TotEng   =    -24822.0970 KinEng   =     21675.6422 Temp     =       302.2582 
PotEng   =    -46497.7392 E_bond   =      2559.6986 E_angle  =     10996.4756 
E_dihed  =      5241.1586 E_impro  =       224.3692 E_vdwl   =     -2255.4208 
E_coul   =    201007.0241 E_long   =   -264271.0445 Press    =       -58.4028 
Volume   =    310472.7482 
Loop time of 441.396 on 2 procs for 600 steps with 32000 atoms

Performance: 0.235 ns/day, 102.175 hours/ns, 1.359 timesteps/s
67.6% CPU use with 2 MPI tasks x 1 OpenMP threads

MPI task timing breakdown:
Section |  min time  |  avg time  |  max time  |%varavg| %total
---------------------------------------------------------------
Pair    | 12.969     | 19.573     | 26.177     | 149.3 |  4.43
Bond    | 0.75775    | 1.126      | 1.4943     |  34.7 |  0.26
Kspace  | 236.59     | 322.01     | 407.44     | 476.0 | 72.95
Neigh   | 3.1142     | 3.1227     | 3.1312     |   0.5 |  0.71
Comm    | 1.001      | 93.482     | 185.96     | 956.5 | 21.18
Output  | 0.00069551 | 0.00080875 | 0.00092199 |   0.0 |  0.00
Modify  | 1.7473     | 1.8996     | 2.0519     |  11.1 |  0.43
Other   |            | 0.1773     |            |       |  0.04

Nlocal:          16000 ave       16058 max       15942 min
Histogram: 1 0 0 0 0 0 0 0 0 1
Nghost:          33265 ave       33310 max       33220 min
Histogram: 1 0 0 0 0 0 0 0 0 1
Neighs:    5.96885e+06 ave 5.99932e+06 max 5.93838e+06 min
Histogram: 1 0 0 0 0 0 0 0 0 1

Total # of neighbors = 11937697
Ave neighs/atom = 373.05303
Ave special neighs/atom = 7.431875
Neighbor list builds = 65
Dangerous builds = 0
Total wall time: 0:07:22
Intel(R) VTune(TM) Profiler 2022.2.0 collection completed successfully. Use the "aps --report /home/ubuntu/lammps/bench/aps_result_20220530" command to generate textual and HTML reports for the profiling session.
