LAMMPS (7 Jan 2022)
  using 1 OpenMP thread(s) per MPI task
Reading data file ...
  orthogonal box = (-27.5 -38.5 -36.3646) to (27.5 38.5 36.3615)
  1 by 2 by 2 MPI processor grid
  reading atoms ...
  32000 atoms
  reading velocities ...
  32000 velocities
  scanning bonds ...
  4 = max bonds/atom
  scanning angles ...
  8 = max angles/atom
  scanning dihedrals ...
  18 = max dihedrals/atom
  scanning impropers ...
  2 = max impropers/atom
  reading bonds ...
  27723 bonds
  reading angles ...
  40467 angles
  reading dihedrals ...
  56829 dihedrals
  reading impropers ...
  1034 impropers
Finding 1-2 1-3 1-4 neighbors ...
  special bond factors lj:    0        0        0       
  special bond factors coul:  0        0        0       
     4 = max # of 1-2 neighbors
    12 = max # of 1-3 neighbors
    24 = max # of 1-4 neighbors
    26 = max # of special neighbors
  special bonds CPU = 0.007 seconds
  read_data CPU = 0.424 seconds
Replicating atoms ...
  orthogonal box = (-27.5 -38.5 -36.3646) to (82.5 115.5 109.0876)
  1 by 2 by 2 MPI processor grid
  256000 atoms
  221784 bonds
  323736 angles
  454632 dihedrals
  8272 impropers
Finding 1-2 1-3 1-4 neighbors ...
  special bond factors lj:    0        0        0       
  special bond factors coul:  0        0        0       
     4 = max # of 1-2 neighbors
    12 = max # of 1-3 neighbors
    24 = max # of 1-4 neighbors
    26 = max # of special neighbors
  special bonds CPU = 0.073 seconds
  replicate CPU = 0.148 seconds
Finding SHAKE clusters ...
   12936 = # of size 2 clusters
   29064 = # of size 3 clusters
    5976 = # of size 4 clusters
   33864 = # of frozen angles
  find clusters CPU = 0.050 seconds
PPPM initialization ...
  using 12-bit tables for long-range coulomb (../kspace.cpp:340)
  G vector (1/distance) = 0.25045586
  grid = 45 60 60
  stencil order = 7
  estimated absolute RMS force accuracy = 0.032785255
  estimated relative force accuracy = 9.8731821e-05
  using single precision MKL FFT
  3d grid and FFT values/proc = 71188 40500
----------------------------------------------------------
Using INTEL Package without Coprocessor.
Compiler: Intel Classic C++ 20.21.5 / Intel(R) C++ g++ 9.3 mode
SIMD compiler directives: Enabled
Precision: mixed
----------------------------------------------------------
  generated 2278 of 2278 mixed pair_coeff terms from arithmetic mixing rule
Neighbor list info ...
  update every 1 steps, delay 5 steps, check yes
  max neighbors/atom: 2000, page size: 100000
  master list distance cutoff = 12
  ghost atom cutoff = 12
  binsize = 6, bins = 19 26 25
  1 neighbor lists, perpetual/occasional/extra = 1 0 0
  (1) pair lj/charmm/coul/long/intel, perpetual
      attributes: half, newton on, intel
      pair build: half/bin/newton/intel
      stencil: half/bin/3d
      bin: intel
Setting up Verlet run ...
  Unit style    : real
  Current step  : 0
  Time step     : 2
Per MPI rank memory allocation (min/avg/max) = 717.6 | 717.6 | 717.6 Mbytes
---------------- Step        0 ----- CPU =      0.0000 (sec) ----------------
TotEng   =   -202864.5379 KinEng   =    171558.6503 Temp     =       299.0288 
PotEng   =   -374423.1882 E_bond   =     20303.9370 E_angle  =     87370.9630 
E_dihed  =     41694.2900 E_impro  =      1708.1116 E_vdwl   =    -18462.9090 
E_coul   =   1670250.1020 E_long   =  -2177287.6828 Press    =      -148.4154 
Volume   =   2463960.2680 
---------------- Step       50 ----- CPU =     13.0293 (sec) ----------------
TotEng   =   -202648.8419 KinEng   =    172008.0373 Temp     =       299.8121 
PotEng   =   -374656.8792 E_bond   =     19774.1011 E_angle  =     86693.4157 
E_dihed  =     41917.3442 E_impro  =      1816.9691 E_vdwl   =    -15944.9404 
E_coul   =   1668429.0157 E_long   =  -2177342.7845 Press    =       238.9863 
Volume   =   2464255.7504 
---------------- Step      100 ----- CPU =     26.2958 (sec) ----------------
TotEng   =   -202321.9806 KinEng   =    172719.8999 Temp     =       301.0529 
PotEng   =   -375041.8805 E_bond   =     20544.0583 E_angle  =     86258.0793 
E_dihed  =     41590.1136 E_impro  =      1734.0906 E_vdwl   =    -15193.5615 
E_coul   =   1667326.5445 E_long   =  -2177301.2052 Press    =        13.7873 
Volume   =   2465083.9306 
Loop time of 26.2959 on 4 procs for 100 steps with 256000 atoms

Performance: 0.657 ns/day, 36.522 hours/ns, 3.803 timesteps/s
78.1% CPU use with 4 MPI tasks x 1 OpenMP threads

MPI task timing breakdown:
Section |  min time  |  avg time  |  max time  |%varavg| %total
---------------------------------------------------------------
Pair    | 8.907      | 11.081     | 17.569     | 112.5 | 42.14
Bond    | 0.52774    | 0.62366    | 0.90397    |  20.5 |  2.37
Kspace  | 2.7031     | 9.511      | 11.791     | 127.5 | 36.17
Neigh   | 2.1133     | 2.1391     | 2.149      |   1.0 |  8.13
Comm    | 0.71477    | 0.8441     | 0.90252    |   8.2 |  3.21
Output  | 0.00027842 | 0.00030277 | 0.00035233 |   0.0 |  0.00
Modify  | 1.796      | 1.9032     | 2.2038     |  12.6 |  7.24
Other   |            | 0.1938     |            |       |  0.74

Nlocal:          64000 ave       64000 max       64000 min
Histogram: 4 0 0 0 0 0 0 0 0 0
Nghost:          71599 ave       71599 max       71599 min
Histogram: 4 0 0 0 0 0 0 0 0 0
Neighs:    2.40561e+07 ave 2.41142e+07 max  2.3998e+07 min
Histogram: 2 0 0 0 0 0 0 0 0 2

Total # of neighbors = 96224305
Ave neighs/atom = 375.87619
Ave special neighs/atom = 7.431875
Neighbor list builds = 11
Dangerous builds = 0
Total wall time: 0:00:27
Intel(R) VTune(TM) Profiler 2022.2.0 collection completed successfully. Use the "aps --report /home/ubuntu/lammps/bench/aps_result_20220526" command to generate textual and HTML reports for the profiling session.
