LAMMPS (7 Jan 2022)
  using 1 OpenMP thread(s) per MPI task
Reading data file ...
  orthogonal box = (-27.5 -38.5 -36.3646) to (27.5 38.5 36.3615)
  1 by 2 by 2 MPI processor grid
  reading atoms ...
  32000 atoms
  reading velocities ...
  32000 velocities
  scanning bonds ...
  4 = max bonds/atom
  scanning angles ...
  8 = max angles/atom
  scanning dihedrals ...
  18 = max dihedrals/atom
  scanning impropers ...
  2 = max impropers/atom
  reading bonds ...
  27723 bonds
  reading angles ...
  40467 angles
  reading dihedrals ...
  56829 dihedrals
  reading impropers ...
  1034 impropers
Finding 1-2 1-3 1-4 neighbors ...
  special bond factors lj:    0        0        0       
  special bond factors coul:  0        0        0       
     4 = max # of 1-2 neighbors
    12 = max # of 1-3 neighbors
    24 = max # of 1-4 neighbors
    26 = max # of special neighbors
  special bonds CPU = 0.007 seconds
  read_data CPU = 0.233 seconds
Replicating atoms ...
  orthogonal box = (-27.5 -38.5 -36.3646) to (137.5 192.5 181.8137)
  1 by 2 by 2 MPI processor grid
  864000 atoms
  748521 bonds
  1092609 angles
  1534383 dihedrals
  27918 impropers
Finding 1-2 1-3 1-4 neighbors ...
  special bond factors lj:    0        0        0       
  special bond factors coul:  0        0        0       
     4 = max # of 1-2 neighbors
    12 = max # of 1-3 neighbors
    24 = max # of 1-4 neighbors
    26 = max # of special neighbors
  special bonds CPU = 0.154 seconds
  replicate CPU = 0.302 seconds
Finding SHAKE clusters ...
   43659 = # of size 2 clusters
   98091 = # of size 3 clusters
   20169 = # of size 4 clusters
  114291 = # of frozen angles
  find clusters CPU = 0.066 seconds
PPPM initialization ...
  using 12-bit tables for long-range coulomb (../kspace.cpp:340)
  G vector (1/distance) = 0.25235202
  grid = 72 90 90
  stencil order = 7
  estimated absolute RMS force accuracy = 0.029803316
  estimated relative force accuracy = 8.9751802e-05
  using single precision MKL FFT
  3d grid and FFT values/proc = 213616 149040
----------------------------------------------------------
Using INTEL Package without Coprocessor.
Compiler: Intel Classic C++ 20.21.5 / Intel(R) C++ g++ 9.3 mode
SIMD compiler directives: Enabled
Precision: mixed
----------------------------------------------------------
  generated 2278 of 2278 mixed pair_coeff terms from arithmetic mixing rule
Neighbor list info ...
  update every 1 steps, delay 5 steps, check yes
  max neighbors/atom: 2000, page size: 100000
  master list distance cutoff = 12
  ghost atom cutoff = 12
  binsize = 6, bins = 28 39 37
  1 neighbor lists, perpetual/occasional/extra = 1 0 0
  (1) pair lj/charmm/coul/long/intel, perpetual
      attributes: half, newton on, intel
      pair build: half/bin/newton/intel
      stencil: half/bin/3d
      bin: intel
Setting up Verlet run ...
  Unit style    : real
  Current step  : 0
  Time step     : 2
Per MPI rank memory allocation (min/avg/max) = 2280 | 2285 | 2293 Mbytes
---------------- Step        0 ----- CPU =      0.0000 (sec) ----------------
TotEng   =   -684670.9758 KinEng   =    579010.4447 Temp     =       299.0277 
PotEng   =  -1263681.4205 E_bond   =     68525.6859 E_angle  =    294877.1223 
E_dihed  =    140718.2350 E_impro  =      5764.8965 E_vdwl   =    -62312.3838 
E_coul   =   5692538.4980 E_long   =  -7403793.4743 Press    =      -148.6879 
Volume   =   8315865.9045 
---------------- Step       50 ----- CPU =     22.3879 (sec) ----------------
TotEng   =   -683945.7637 KinEng   =    580526.0221 Temp     =       299.8104 
PotEng   =  -1264471.7858 E_bond   =     66737.4492 E_angle  =    292591.3729 
E_dihed  =    141470.6533 E_impro  =      6132.4273 E_vdwl   =    -53811.2373 
E_coul   =   5686392.7197 E_long   =  -7403985.1709 Press    =       238.9158 
Volume   =   8316862.5492 
---------------- Step      100 ----- CPU =     45.2083 (sec) ----------------
TotEng   =   -682828.0319 KinEng   =    582915.3837 Temp     =       301.0444 
PotEng   =  -1265743.4156 E_bond   =     69335.3181 E_angle  =    291121.1096 
E_dihed  =    140366.2069 E_impro  =      5852.7277 E_vdwl   =    -51271.2112 
E_coul   =   5682697.2598 E_long   =  -7403844.8266 Press    =        14.5770 
Volume   =   8319656.0545 
---------------- Step      150 ----- CPU =     68.0507 (sec) ----------------
TotEng   =   -681934.2939 KinEng   =    581471.2339 Temp     =       300.2986 
PotEng   =  -1263405.5277 E_bond   =     69034.6828 E_angle  =    293076.8272 
E_dihed  =    142143.1317 E_impro  =      5481.6087 E_vdwl   =    -56004.1817 
E_coul   =   5686435.4494 E_long   =  -7403573.0459 Press    =       244.1694 
Volume   =   8330011.8197 
---------------- Step      200 ----- CPU =     90.9052 (sec) ----------------
TotEng   =   -677044.8315 KinEng   =    581661.4308 Temp     =       300.3968 
PotEng   =  -1258706.2623 E_bond   =     67217.3546 E_angle  =    299059.5652 
E_dihed  =    140985.4492 E_impro  =      6276.4644 E_vdwl   =    -58007.9934 
E_coul   =   5689307.3614 E_long   =  -7403544.4637 Press    =        40.8233 
Volume   =   8342999.8003 
---------------- Step      250 ----- CPU =    113.3590 (sec) ----------------
TotEng   =   -673904.1986 KinEng   =    581422.4077 Temp     =       300.2734 
PotEng   =  -1255326.6063 E_bond   =     68622.6315 E_angle  =    299580.6760 
E_dihed  =    141628.4235 E_impro  =      5763.0785 E_vdwl   =    -58458.2809 
E_coul   =   5691549.8410 E_long   =  -7404012.9758 Press    =      -156.4578 
Volume   =   8353619.4354 
---------------- Step      300 ----- CPU =    136.2432 (sec) ----------------
TotEng   =   -675762.6904 KinEng   =    581035.8067 Temp     =       300.0737 
PotEng   =  -1256798.4971 E_bond   =     69143.6429 E_angle  =    294992.6083 
E_dihed  =    140989.0044 E_impro  =      6060.4991 E_vdwl   =    -58717.7064 
E_coul   =   5694355.8494 E_long   =  -7403622.3948 Press    =      -387.2480 
Volume   =   8362034.6440 
---------------- Step      350 ----- CPU =    159.1252 (sec) ----------------
TotEng   =   -678677.2523 KinEng   =    583031.1576 Temp     =       301.1042 
PotEng   =  -1261708.4099 E_bond   =     69684.4789 E_angle  =    295883.5669 
E_dihed  =    141872.0673 E_impro  =      5645.8529 E_vdwl   =    -55440.3353 
E_coul   =   5684627.7126 E_long   =  -7403981.7534 Press    =      -329.1734 
Volume   =   8365828.6746 
---------------- Step      400 ----- CPU =    182.0438 (sec) ----------------
TotEng   =   -682550.2925 KinEng   =    578463.4002 Temp     =       298.7452 
PotEng   =  -1261013.6928 E_bond   =     68696.9869 E_angle  =    294985.8938 
E_dihed  =    140855.2168 E_impro  =      5799.7763 E_vdwl   =    -53564.9660 
E_coul   =   5685949.3093 E_long   =  -7403735.9099 Press    =       270.4789 
Volume   =   8366850.2385 
---------------- Step      450 ----- CPU =    205.4126 (sec) ----------------
TotEng   =   -684282.0884 KinEng   =    578879.9826 Temp     =       298.9603 
PotEng   =  -1263162.0709 E_bond   =     67184.7393 E_angle  =    294418.1195 
E_dihed  =    142288.8830 E_impro  =      6051.6821 E_vdwl   =    -60398.2283 
E_coul   =   5691061.4053 E_long   =  -7403768.6719 Press    =       148.7770 
Volume   =   8368737.3439 
---------------- Step      500 ----- CPU =    228.3343 (sec) ----------------
TotEng   =   -678302.3668 KinEng   =    580376.0574 Temp     =       299.7330 
PotEng   =  -1258678.4243 E_bond   =     69835.2685 E_angle  =    294710.3682 
E_dihed  =    141529.6182 E_impro  =      5860.3169 E_vdwl   =    -59513.4305 
E_coul   =   5692411.6736 E_long   =  -7403512.2391 Press    =      -229.9099 
Volume   =   8369434.3715 
---------------- Step      550 ----- CPU =    251.7643 (sec) ----------------
TotEng   =   -671287.6616 KinEng   =    584300.8773 Temp     =       301.7599 
PotEng   =  -1255588.5389 E_bond   =     68899.4145 E_angle  =    296677.6830 
E_dihed  =    140569.8776 E_impro  =      6477.5063 E_vdwl   =    -57263.5345 
E_coul   =   5692841.6865 E_long   =  -7403791.1723 Press    =       351.4340 
Volume   =   8369111.6833 
---------------- Step      600 ----- CPU =    274.6999 (sec) ----------------
TotEng   =   -669581.5285 KinEng   =    585278.1989 Temp     =       302.2647 
PotEng   =  -1254859.7274 E_bond   =     67874.2258 E_angle  =    297859.6642 
E_dihed  =    142146.8930 E_impro  =      6111.3951 E_vdwl   =    -58470.0747 
E_coul   =   5693334.9868 E_long   =  -7403716.8176 Press    =       149.4954 
Volume   =   8371967.9942 
---------------- Step      650 ----- CPU =    298.1279 (sec) ----------------
TotEng   =   -674105.6982 KinEng   =    582223.7222 Temp     =       300.6872 
PotEng   =  -1256329.4204 E_bond   =     68568.0153 E_angle  =    293835.8012 
E_dihed  =    141424.9002 E_impro  =      5696.3453 E_vdwl   =    -57277.1698 
E_coul   =   5695095.1422 E_long   =  -7403672.4549 Press    =      -176.6025 
Volume   =   8375359.8369 
---------------- Step      700 ----- CPU =    321.0867 (sec) ----------------
TotEng   =   -678135.2760 KinEng   =    581611.5481 Temp     =       300.3710 
PotEng   =  -1259746.8241 E_bond   =     67154.8803 E_angle  =    296224.3321 
E_dihed  =    141330.3893 E_impro  =      5670.9098 E_vdwl   =    -60042.4018 
E_coul   =   5693611.4136 E_long   =  -7403696.3475 Press    =       128.3616 
Volume   =   8377908.6099 
---------------- Step      750 ----- CPU =    344.5253 (sec) ----------------
TotEng   =   -679408.0921 KinEng   =    578054.7760 Temp     =       298.5342 
PotEng   =  -1257462.8681 E_bond   =     68953.8151 E_angle  =    296981.3161 
E_dihed  =    142058.8629 E_impro  =      5768.6866 E_vdwl   =    -58785.8853 
E_coul   =   5691397.9335 E_long   =  -7403837.5971 Press    =       -82.6857 
Volume   =   8377592.5713 
---------------- Step      800 ----- CPU =    367.9733 (sec) ----------------
TotEng   =   -677674.2290 KinEng   =    579827.6780 Temp     =       299.4498 
PotEng   =  -1257501.9070 E_bond   =     67765.2371 E_angle  =    298696.8354 
E_dihed  =    141830.3437 E_impro  =      6070.4254 E_vdwl   =    -58334.9691 
E_coul   =   5690052.0349 E_long   =  -7403581.8144 Press    =       -85.9167 
Volume   =   8375840.4900 
---------------- Step      850 ----- CPU =    390.9815 (sec) ----------------
TotEng   =   -674413.2631 KinEng   =    581435.3265 Temp     =       300.2800 
PotEng   =  -1255848.5896 E_bond   =     68418.6540 E_angle  =    296910.6981 
E_dihed  =    141833.0870 E_impro  =      5877.2616 E_vdwl   =    -55691.5698 
E_coul   =   5690462.8093 E_long   =  -7403659.5298 Press    =       356.2628 
Volume   =   8369677.1035 
---------------- Step      900 ----- CPU =    414.0153 (sec) ----------------
TotEng   =   -672595.5854 KinEng   =    582152.4404 Temp     =       300.6504 
PotEng   =  -1254748.0257 E_bond   =     68300.4402 E_angle  =    296487.1226 
E_dihed  =    142370.4050 E_impro  =      6150.3760 E_vdwl   =    -55000.1315 
E_coul   =   5690574.4115 E_long   =  -7403630.6495 Press    =       287.6914 
Volume   =   8364524.3821 
---------------- Step      950 ----- CPU =    437.5122 (sec) ----------------
TotEng   =   -673842.0292 KinEng   =    581948.7373 Temp     =       300.5452 
PotEng   =  -1255790.7665 E_bond   =     69112.1160 E_angle  =    297235.8464 
E_dihed  =    143061.8134 E_impro  =      6351.9945 E_vdwl   =    -57218.7741 
E_coul   =   5689202.3781 E_long   =  -7403536.1407 Press    =      -145.1880 
Volume   =   8362615.1402 
---------------- Step     1000 ----- CPU =    460.5760 (sec) ----------------
TotEng   =   -676872.9659 KinEng   =    580777.9926 Temp     =       299.9405 
PotEng   =  -1257650.9585 E_bond   =     69531.0449 E_angle  =    297002.4334 
E_dihed  =    141878.2790 E_impro  =      6021.4726 E_vdwl   =    -57335.9681 
E_coul   =   5688924.0362 E_long   =  -7403672.2565 Press    =       -86.7151 
Volume   =   8360829.4124 
---------------- Step     1050 ----- CPU =    484.0849 (sec) ----------------
TotEng   =   -678909.4478 KinEng   =    579181.0023 Temp     =       299.1158 
PotEng   =  -1258090.4501 E_bond   =     69154.4896 E_angle  =    297107.5223 
E_dihed  =    141633.8247 E_impro  =      5962.0425 E_vdwl   =    -57761.3129 
E_coul   =   5689486.8357 E_long   =  -7403673.8520 Press    =       -49.4762 
Volume   =   8359853.7112 
---------------- Step     1100 ----- CPU =    507.6455 (sec) ----------------
TotEng   =   -678596.1354 KinEng   =    580368.6256 Temp     =       299.7291 
PotEng   =  -1258964.7611 E_bond   =     69363.6193 E_angle  =    296305.7169 
E_dihed  =    142830.6953 E_impro  =      6183.2435 E_vdwl   =    -57985.2270 
E_coul   =   5688270.1452 E_long   =  -7403932.9542 Press    =       -79.4227 
Volume   =   8357505.4814 
---------------- Step     1150 ----- CPU =    530.6838 (sec) ----------------
TotEng   =   -676644.6315 KinEng   =    581509.2871 Temp     =       300.3182 
PotEng   =  -1258153.9187 E_bond   =     68582.2106 E_angle  =    296160.7210 
E_dihed  =    142718.9336 E_impro  =      5933.6528 E_vdwl   =    -56990.5450 
E_coul   =   5689157.1861 E_long   =  -7403716.0778 Press    =       165.1101 
Volume   =   8353242.9633 
---------------- Step     1200 ----- CPU =    554.2398 (sec) ----------------
TotEng   =   -674821.9603 KinEng   =    582534.1972 Temp     =       300.8475 
PotEng   =  -1257356.1575 E_bond   =     69615.9860 E_angle  =    295637.3737 
E_dihed  =    142595.0894 E_impro  =      6051.0665 E_vdwl   =    -57134.3776 
E_coul   =   5689670.5754 E_long   =  -7403791.8708 Press    =        74.6061 
Volume   =   8349723.8929 
---------------- Step     1250 ----- CPU =    577.3572 (sec) ----------------
TotEng   =   -675064.7296 KinEng   =    581614.0887 Temp     =       300.3723 
PotEng   =  -1256678.8183 E_bond   =     69420.4245 E_angle  =    296506.3764 
E_dihed  =    142259.4613 E_impro  =      6014.5771 E_vdwl   =    -56789.2045 
E_coul   =   5689591.5874 E_long   =  -7403682.0405 Press    =        39.0221 
Volume   =   8348421.0079 
---------------- Step     1300 ----- CPU =    600.9309 (sec) ----------------
TotEng   =   -677143.6429 KinEng   =    581074.3562 Temp     =       300.0936 
PotEng   =  -1258217.9991 E_bond   =     69720.6678 E_angle  =    296886.1255 
E_dihed  =    142211.0567 E_impro  =      6076.6707 E_vdwl   =    -58346.5566 
E_coul   =   5688953.4781 E_long   =  -7403719.4413 Press    =      -260.7437 
Volume   =   8348552.4847 
---------------- Step     1350 ----- CPU =    624.0517 (sec) ----------------
TotEng   =   -678850.1455 KinEng   =    579940.4483 Temp     =       299.5080 
PotEng   =  -1258790.5939 E_bond   =     69679.8009 E_angle  =    296517.3528 
E_dihed  =    141731.5411 E_impro  =      5968.9006 E_vdwl   =    -58123.0688 
E_coul   =   5689152.5107 E_long   =  -7403717.6312 Press    =       -30.8790 
Volume   =   8348863.2811 
---------------- Step     1400 ----- CPU =    647.5938 (sec) ----------------
TotEng   =   -678905.7134 KinEng   =    579146.5952 Temp     =       299.0980 
PotEng   =  -1258052.3085 E_bond   =     69693.5501 E_angle  =    296370.2281 
E_dihed  =    142476.7658 E_impro  =      5983.6278 E_vdwl   =    -57451.1893 
E_coul   =   5688635.8842 E_long   =  -7403761.1752 Press    =       -61.2220 
Volume   =   8349709.5096 
---------------- Step     1450 ----- CPU =    670.7272 (sec) ----------------
TotEng   =   -677681.3747 KinEng   =    580332.7167 Temp     =       299.7106 
PotEng   =  -1258014.0915 E_bond   =     69160.1935 E_angle  =    297205.8095 
E_dihed  =    142027.2986 E_impro  =      5906.0829 E_vdwl   =    -56873.6693 
E_coul   =   5688268.9686 E_long   =  -7403708.7752 Press    =      -105.8837 
Volume   =   8350315.2835 
---------------- Step     1500 ----- CPU =    693.8356 (sec) ----------------
TotEng   =   -676780.5676 KinEng   =    582006.6637 Temp     =       300.5751 
PotEng   =  -1258787.2312 E_bond   =     68925.6293 E_angle  =    297194.0311 
E_dihed  =    141742.8366 E_impro  =      6009.7894 E_vdwl   =    -56063.4032 
E_coul   =   5687085.6279 E_long   =  -7403681.7423 Press    =        70.6739 
Volume   =   8351337.4874 
---------------- Step     1550 ----- CPU =    717.4117 (sec) ----------------
TotEng   =   -676997.7195 KinEng   =    580860.3686 Temp     =       299.9831 
PotEng   =  -1257858.0880 E_bond   =     69202.9951 E_angle  =    297035.0352 
E_dihed  =    141842.2111 E_impro  =      6077.5693 E_vdwl   =    -57990.1024 
E_coul   =   5689757.8973 E_long   =  -7403783.6936 Press    =        67.4590 
Volume   =   8353650.0518 
---------------- Step     1600 ----- CPU =    740.5272 (sec) ----------------
TotEng   =   -677450.6182 KinEng   =    581014.3311 Temp     =       300.0626 
PotEng   =  -1258464.9493 E_bond   =     69231.6534 E_angle  =    296355.4554 
E_dihed  =    141806.8107 E_impro  =      5925.0444 E_vdwl   =    -57738.2882 
E_coul   =   5689794.3508 E_long   =  -7403839.9758 Press    =       -16.3364 
Volume   =   8356949.7544 
---------------- Step     1650 ----- CPU =    764.1723 (sec) ----------------
TotEng   =   -677449.6304 KinEng   =    581218.0026 Temp     =       300.1678 
PotEng   =  -1258667.6330 E_bond   =     69208.5580 E_angle  =    296383.7007 
E_dihed  =    141801.0829 E_impro  =      6012.3040 E_vdwl   =    -56986.5362 
E_coul   =   5688670.1408 E_long   =  -7403756.8832 Press    =        -0.6416 
Volume   =   8359895.4660 
---------------- Step     1700 ----- CPU =    787.3098 (sec) ----------------
TotEng   =   -677041.2383 KinEng   =    580721.3365 Temp     =       299.9113 
PotEng   =  -1257762.5748 E_bond   =     68894.1326 E_angle  =    297916.5266 
E_dihed  =    141680.5011 E_impro  =      6023.2917 E_vdwl   =    -57428.9352 
E_coul   =   5688893.5401 E_long   =  -7403741.6317 Press    =        99.5077 
Volume   =   8362012.8127 
---------------- Step     1750 ----- CPU =    810.4484 (sec) ----------------
TotEng   =   -676227.6863 KinEng   =    581811.8532 Temp     =       300.4745 
PotEng   =  -1258039.5395 E_bond   =     69013.7670 E_angle  =    297269.1926 
E_dihed  =    141933.1029 E_impro  =      6107.8887 E_vdwl   =    -56910.8584 
E_coul   =   5688291.9555 E_long   =  -7403744.5878 Press    =       -58.0845 
Volume   =   8363148.7866 
---------------- Step     1800 ----- CPU =    834.0364 (sec) ----------------
TotEng   =   -675841.7315 KinEng   =    581444.3268 Temp     =       300.2847 
PotEng   =  -1257286.0582 E_bond   =     69362.0984 E_angle  =    297263.3469 
E_dihed  =    141648.0408 E_impro  =      6083.7217 E_vdwl   =    -57296.6420 
E_coul   =   5689406.0799 E_long   =  -7403752.7038 Press    =      -135.4487 
Volume   =   8363189.5117 
---------------- Step     1850 ----- CPU =    857.1787 (sec) ----------------
TotEng   =   -676675.8982 KinEng   =    581202.7094 Temp     =       300.1599 
PotEng   =  -1257878.6076 E_bond   =     69136.9348 E_angle  =    297530.9265 
E_dihed  =    142084.8007 E_impro  =      5848.2561 E_vdwl   =    -57101.2935 
E_coul   =   5688380.1572 E_long   =  -7403758.3894 Press    =        43.2749 
Volume   =   8361785.6613 
---------------- Step     1900 ----- CPU =    880.7462 (sec) ----------------
TotEng   =   -677912.6377 KinEng   =    580570.3119 Temp     =       299.8333 
PotEng   =  -1258482.9495 E_bond   =     69288.9360 E_angle  =    296891.3494 
E_dihed  =    141834.8681 E_impro  =      6070.9382 E_vdwl   =    -56200.4972 
E_coul   =   5687249.9711 E_long   =  -7403618.5151 Press    =        -2.5536 
Volume   =   8359569.6892 
---------------- Step     1950 ----- CPU =    903.8551 (sec) ----------------
TotEng   =   -678669.5063 KinEng   =    580136.5837 Temp     =       299.6093 
PotEng   =  -1258806.0900 E_bond   =     68858.8948 E_angle  =    297423.3135 
E_dihed  =    141723.5917 E_impro  =      5965.0898 E_vdwl   =    -55858.7033 
E_coul   =   5686854.3978 E_long   =  -7403772.6743 Press    =       -20.0893 
Volume   =   8357392.7529 
---------------- Step     2000 ----- CPU =    927.4360 (sec) ----------------
TotEng   =   -678649.5118 KinEng   =    581048.4918 Temp     =       300.0802 
PotEng   =  -1259698.0036 E_bond   =     69035.0013 E_angle  =    297099.8683 
E_dihed  =    141745.6210 E_impro  =      5994.2224 E_vdwl   =    -57119.7410 
E_coul   =   5687306.2525 E_long   =  -7403759.2281 Press    =       -55.4803 
Volume   =   8355927.5950 
---------------- Step     2050 ----- CPU =    950.5693 (sec) ----------------
TotEng   =   -677785.5656 KinEng   =    581031.1849 Temp     =       300.0713 
PotEng   =  -1258816.7506 E_bond   =     69217.0334 E_angle  =    296856.5819 
E_dihed  =    142249.9791 E_impro  =      6093.9522 E_vdwl   =    -55734.8751 
E_coul   =   5686150.6060 E_long   =  -7403650.0280 Press    =        -7.1772 
Volume   =   8354663.6791 
---------------- Step     2100 ----- CPU =    974.1421 (sec) ----------------
TotEng   =   -677419.9824 KinEng   =    581782.8991 Temp     =       300.4595 
PotEng   =  -1259202.8815 E_bond   =     69325.6534 E_angle  =    297014.8064 
E_dihed  =    142091.7559 E_impro  =      6043.2471 E_vdwl   =    -57529.4147 
E_coul   =   5687613.6354 E_long   =  -7403762.5649 Press    =       -43.3837 
Volume   =   8353688.8477 
---------------- Step     2150 ----- CPU =    997.2528 (sec) ----------------
TotEng   =   -678101.7495 KinEng   =    580635.9437 Temp     =       299.8672 
PotEng   =  -1258737.6932 E_bond   =     68968.6992 E_angle  =    297521.8897 
E_dihed  =    142026.7449 E_impro  =      6043.1289 E_vdwl   =    -56345.1555 
E_coul   =   5686800.0570 E_long   =  -7403753.0573 Press    =        12.9177 
Volume   =   8352956.0952 
---------------- Step     2200 ----- CPU =   1020.8457 (sec) ----------------
TotEng   =   -678702.6847 KinEng   =    580371.0995 Temp     =       299.7304 
PotEng   =  -1259073.7842 E_bond   =     69211.5709 E_angle  =    297473.9096 
E_dihed  =    142297.8317 E_impro  =      6048.1157 E_vdwl   =    -56933.3749 
E_coul   =   5686542.7649 E_long   =  -7403714.6022 Press    =       -59.2520 
Volume   =   8352370.9462 
---------------- Step     2250 ----- CPU =   1043.9497 (sec) ----------------
TotEng   =   -678694.0659 KinEng   =    580946.6286 Temp     =       300.0276 
PotEng   =  -1259640.6945 E_bond   =     69392.7131 E_angle  =    296641.6715 
E_dihed  =    141979.8820 E_impro  =      6047.2972 E_vdwl   =    -56652.8184 
E_coul   =   5686779.7318 E_long   =  -7403829.1717 Press    =       -47.5024 
Volume   =   8351537.9191 
---------------- Step     2300 ----- CPU =   1067.5298 (sec) ----------------
TotEng   =   -678041.3403 KinEng   =    581032.7090 Temp     =       300.0721 
PotEng   =  -1259074.0494 E_bond   =     69633.6680 E_angle  =    296978.3055 
E_dihed  =    141969.9729 E_impro  =      6025.3988 E_vdwl   =    -56610.4208 
E_coul   =   5686711.0167 E_long   =  -7403781.9905 Press    =       -46.7886 
Volume   =   8351049.6132 
---------------- Step     2350 ----- CPU =   1090.6812 (sec) ----------------
TotEng   =   -677459.2476 KinEng   =    580882.8605 Temp     =       299.9947 
PotEng   =  -1258342.1081 E_bond   =     69593.7286 E_angle  =    298067.1352 
E_dihed  =    142081.1443 E_impro  =      6040.4342 E_vdwl   =    -56245.1585 
E_coul   =   5685803.9683 E_long   =  -7403683.3602 Press    =       -46.9687 
Volume   =   8350421.8500 
---------------- Step     2400 ----- CPU =   1113.8152 (sec) ----------------
TotEng   =   -678157.9726 KinEng   =    581343.6256 Temp     =       300.2327 
PotEng   =  -1259501.5982 E_bond   =     69027.2119 E_angle  =    297522.6282 
E_dihed  =    142086.7438 E_impro  =      6049.0473 E_vdwl   =    -56488.4576 
E_coul   =   5686085.3267 E_long   =  -7403784.0985 Press    =         2.8753 
Volume   =   8350770.2045 
---------------- Step     2450 ----- CPU =   1137.3932 (sec) ----------------
TotEng   =   -679448.3590 KinEng   =    580028.8526 Temp     =       299.5537 
PotEng   =  -1259477.2116 E_bond   =     69506.0028 E_angle  =    297533.6120 
E_dihed  =    141960.0170 E_impro  =      5978.3142 E_vdwl   =    -56841.8502 
E_coul   =   5686106.5260 E_long   =  -7403719.8334 Press    =       -22.4242 
Volume   =   8351431.2423 
---------------- Step     2500 ----- CPU =   1160.4822 (sec) ----------------
TotEng   =   -679585.6238 KinEng   =    579962.8673 Temp     =       299.5196 
PotEng   =  -1259548.4910 E_bond   =     68923.4463 E_angle  =    297644.7782 
E_dihed  =    142075.0791 E_impro  =      6000.6607 E_vdwl   =    -56696.5902 
E_coul   =   5686222.5445 E_long   =  -7403718.4097 Press    =        49.3915 
Volume   =   8350856.9192 
---------------- Step     2550 ----- CPU =   1183.6125 (sec) ----------------
TotEng   =   -678557.1549 KinEng   =    580728.2153 Temp     =       299.9148 
PotEng   =  -1259285.3701 E_bond   =     69626.5476 E_angle  =    297317.8726 
E_dihed  =    142150.4193 E_impro  =      6037.7473 E_vdwl   =    -56104.6983 
E_coul   =   5685333.6809 E_long   =  -7403646.9396 Press    =       -50.5310 
Volume   =   8349369.8881 
---------------- Step     2600 ----- CPU =   1207.2030 (sec) ----------------
TotEng   =   -677673.9739 KinEng   =    581642.0046 Temp     =       300.3868 
PotEng   =  -1259315.9785 E_bond   =     69611.6415 E_angle  =    296417.0186 
E_dihed  =    142114.2168 E_impro  =      6088.9513 E_vdwl   =    -56087.1114 
E_coul   =   5686377.0148 E_long   =  -7403837.7101 Press    =         6.6776 
Volume   =   8347355.8979 
---------------- Step     2650 ----- CPU =   1230.8297 (sec) ----------------
TotEng   =   -677795.3527 KinEng   =    581003.3872 Temp     =       300.0570 
PotEng   =  -1258798.7400 E_bond   =     69141.9729 E_angle  =    298072.8661 
E_dihed  =    142068.3124 E_impro  =      5998.6887 E_vdwl   =    -55802.5959 
E_coul   =   5685510.0948 E_long   =  -7403788.0790 Press    =        17.9846 
Volume   =   8345706.0138 
---------------- Step     2700 ----- CPU =   1253.9644 (sec) ----------------
TotEng   =   -678720.8209 KinEng   =    580559.0381 Temp     =       299.8275 
PotEng   =  -1259279.8590 E_bond   =     69370.6907 E_angle  =    297578.0541 
E_dihed  =    141999.1467 E_impro  =      6062.9291 E_vdwl   =    -56032.9497 
E_coul   =   5685471.2091 E_long   =  -7403728.9390 Press    =       -46.6160 
Volume   =   8344315.0837 
---------------- Step     2750 ----- CPU =   1277.1311 (sec) ----------------
TotEng   =   -679926.3470 KinEng   =    581168.9956 Temp     =       300.1425 
PotEng   =  -1261095.3426 E_bond   =     69044.2774 E_angle  =    297216.1255 
E_dihed  =    142025.4208 E_impro  =      6082.5459 E_vdwl   =    -55932.3245 
E_coul   =   5684271.9449 E_long   =  -7403803.3327 Press    =        39.7169 
Volume   =   8344266.8266 
---------------- Step     2800 ----- CPU =   1300.7635 (sec) ----------------
TotEng   =   -680660.2226 KinEng   =    580290.5386 Temp     =       299.6888 
PotEng   =  -1260950.7612 E_bond   =     68824.9155 E_angle  =    297279.5196 
E_dihed  =    141739.4732 E_impro  =      6095.7435 E_vdwl   =    -56551.0927 
E_coul   =   5685377.1123 E_long   =  -7403716.4325 Press    =         6.7561 
Volume   =   8344632.5984 
---------------- Step     2850 ----- CPU =   1323.9381 (sec) ----------------
TotEng   =   -680093.6340 KinEng   =    580276.1748 Temp     =       299.6814 
PotEng   =  -1260369.8088 E_bond   =     69215.2791 E_angle  =    298193.6820 
E_dihed  =    141716.2086 E_impro  =      6078.0581 E_vdwl   =    -56402.8307 
E_coul   =   5684551.6384 E_long   =  -7403721.8443 Press    =       -54.5839 
Volume   =   8345655.5429 
---------------- Step     2900 ----- CPU =   1347.0929 (sec) ----------------
TotEng   =   -679103.3125 KinEng   =    581214.9703 Temp     =       300.1662 
PotEng   =  -1260318.2829 E_bond   =     69529.2727 E_angle  =    297292.4909 
E_dihed  =    142147.3060 E_impro  =      6077.9971 E_vdwl   =    -56588.3832 
E_coul   =   5684939.8361 E_long   =  -7403716.8026 Press    =       -37.9417 
Volume   =   8346885.7965 
---------------- Step     2950 ----- CPU =   1370.7062 (sec) ----------------
TotEng   =   -678419.0982 KinEng   =    581791.7058 Temp     =       300.4641 
PotEng   =  -1260210.8039 E_bond   =     69352.1429 E_angle  =    297662.1295 
E_dihed  =    141925.4756 E_impro  =      6007.2429 E_vdwl   =    -56307.3609 
E_coul   =   5684856.3261 E_long   =  -7403706.7601 Press    =       -61.5879 
Volume   =   8347164.0807 
---------------- Step     3000 ----- CPU =   1393.8717 (sec) ----------------
TotEng   =   -678429.4495 KinEng   =    580862.2660 Temp     =       299.9841 
PotEng   =  -1259291.7155 E_bond   =     69591.8288 E_angle  =    298344.8915 
E_dihed  =    142015.9006 E_impro  =      6142.7837 E_vdwl   =    -56833.1897 
E_coul   =   5685234.7843 E_long   =  -7403788.7147 Press    =        10.4378 
Volume   =   8347050.0399 
---------------- Step     3050 ----- CPU =   1417.0546 (sec) ----------------
TotEng   =   -679351.0437 KinEng   =    580618.6155 Temp     =       299.8582 
PotEng   =  -1259969.6592 E_bond   =     69868.0355 E_angle  =    297185.3871 
E_dihed  =    142051.4048 E_impro  =      6051.6819 E_vdwl   =    -56425.8566 
E_coul   =   5685035.3833 E_long   =  -7403735.6951 Press    =       -39.8913 
Volume   =   8346752.9414 
---------------- Step     3100 ----- CPU =   1440.7105 (sec) ----------------
TotEng   =   -679905.1260 KinEng   =    581075.3829 Temp     =       300.0941 
PotEng   =  -1260980.5089 E_bond   =     69825.5951 E_angle  =    297607.6521 
E_dihed  =    141688.4553 E_impro  =      5965.1211 E_vdwl   =    -55990.5575 
E_coul   =   5683720.6519 E_long   =  -7403797.4269 Press    =       -73.8872 
Volume   =   8345519.6028 
---------------- Step     3150 ----- CPU =   1463.8923 (sec) ----------------
TotEng   =   -680227.8335 KinEng   =    580880.5517 Temp     =       299.9935 
PotEng   =  -1261108.3852 E_bond   =     69243.5194 E_angle  =    297554.2755 
E_dihed  =    142157.0338 E_impro  =      5983.2270 E_vdwl   =    -55086.0584 
E_coul   =   5682811.2687 E_long   =  -7403771.6510 Press    =       108.8343 
Volume   =   8343903.7493 
---------------- Step     3200 ----- CPU =   1487.0664 (sec) ----------------
TotEng   =   -679994.0271 KinEng   =    581524.6521 Temp     =       300.3262 
PotEng   =  -1261518.6792 E_bond   =     69258.3099 E_angle  =    297647.8612 
E_dihed  =    142062.5674 E_impro  =      5984.8297 E_vdwl   =    -54799.1629 
E_coul   =   5682142.5272 E_long   =  -7403815.6118 Press    =        49.7193 
Volume   =   8342727.8999 
---------------- Step     3250 ----- CPU =   1510.6664 (sec) ----------------
TotEng   =   -679861.4181 KinEng   =    580992.1078 Temp     =       300.0511 
PotEng   =  -1260853.5259 E_bond   =     69188.5578 E_angle  =    298117.1571 
E_dihed  =    142037.5999 E_impro  =      5956.2492 E_vdwl   =    -55642.8433 
E_coul   =   5683260.4411 E_long   =  -7403770.6877 Press    =         8.9411 
Volume   =   8342319.8952 
---------------- Step     3300 ----- CPU =   1533.8551 (sec) ----------------
TotEng   =   -680110.5455 KinEng   =    580254.5297 Temp     =       299.6702 
PotEng   =  -1260365.0752 E_bond   =     69792.6812 E_angle  =    298175.3805 
E_dihed  =    141908.3246 E_impro  =      5953.2023 E_vdwl   =    -55516.8029 
E_coul   =   5683091.4769 E_long   =  -7403769.3378 Press    =       -43.5820 
Volume   =   8342013.7365 
---------------- Step     3350 ----- CPU =   1557.4807 (sec) ----------------
TotEng   =   -680515.8054 KinEng   =    580822.4045 Temp     =       299.9635 
PotEng   =  -1261338.2099 E_bond   =     69269.7776 E_angle  =    297844.9908 
E_dihed  =    141963.7559 E_impro  =      5997.0206 E_vdwl   =    -55850.0580 
E_coul   =   5683262.3154 E_long   =  -7403826.0121 Press    =        16.6051 
Volume   =   8341573.4952 
---------------- Step     3400 ----- CPU =   1580.7025 (sec) ----------------
TotEng   =   -680673.2601 KinEng   =    580272.4741 Temp     =       299.6795 
PotEng   =  -1260945.7342 E_bond   =     69312.1309 E_angle  =    297930.2091 
E_dihed  =    142070.3373 E_impro  =      6089.4098 E_vdwl   =    -56570.7854 
E_coul   =   5684024.4856 E_long   =  -7403801.5215 Press    =        -7.0961 
Volume   =   8341478.5303 
---------------- Step     3450 ----- CPU =   1603.9142 (sec) ----------------
TotEng   =   -680680.7046 KinEng   =    579987.4739 Temp     =       299.5323 
PotEng   =  -1260668.1784 E_bond   =     69477.2921 E_angle  =    297651.6123 
E_dihed  =    141999.4309 E_impro  =      6125.3885 E_vdwl   =    -56511.6874 
E_coul   =   5684359.1944 E_long   =  -7403769.4091 Press    =       -98.4510 
Volume   =   8341113.5207 
---------------- Step     3500 ----- CPU =   1627.5786 (sec) ----------------
TotEng   =   -680473.4276 KinEng   =    580678.3518 Temp     =       299.8891 
PotEng   =  -1261151.7794 E_bond   =     69440.3696 E_angle  =    297527.4562 
E_dihed  =    141978.5093 E_impro  =      6075.5200 E_vdwl   =    -56126.5933 
E_coul   =   5683706.9045 E_long   =  -7403753.9457 Press    =        66.3349 
Volume   =   8340841.6605 
---------------- Step     3550 ----- CPU =   1651.2119 (sec) ----------------
TotEng   =   -680326.6359 KinEng   =    581039.3462 Temp     =       300.0755 
PotEng   =  -1261365.9820 E_bond   =     69825.2666 E_angle  =    298031.0208 
E_dihed  =    141993.3644 E_impro  =      5942.1421 E_vdwl   =    -55949.2491 
E_coul   =   5682500.0007 E_long   =  -7403708.5276 Press    =       -57.7639 
Volume   =   8340648.9385 
---------------- Step     3600 ----- CPU =   1674.3784 (sec) ----------------
TotEng   =   -680336.7049 KinEng   =    580128.1096 Temp     =       299.6049 
PotEng   =  -1260464.8145 E_bond   =     69255.1628 E_angle  =    297919.1367 
E_dihed  =    142017.4719 E_impro  =      6172.4578 E_vdwl   =    -55841.6560 
E_coul   =   5683769.7490 E_long   =  -7403757.1368 Press    =       -32.0527 
Volume   =   8340070.0734 
---------------- Step     3650 ----- CPU =   1697.5565 (sec) ----------------
TotEng   =   -679787.7787 KinEng   =    580331.6221 Temp     =       299.7100 
PotEng   =  -1260119.4008 E_bond   =     69769.1562 E_angle  =    298555.7084 
E_dihed  =    142118.9949 E_impro  =      6050.4852 E_vdwl   =    -56111.8152 
E_coul   =   5683240.8605 E_long   =  -7403742.7908 Press    =       -63.6612 
Volume   =   8339113.1626 
---------------- Step     3700 ----- CPU =   1721.1689 (sec) ----------------
TotEng   =   -679276.3777 KinEng   =    580828.5992 Temp     =       299.9667 
PotEng   =  -1260104.9769 E_bond   =     69374.1337 E_angle  =    298713.3932 
E_dihed  =    142248.8167 E_impro  =      6056.3022 E_vdwl   =    -55706.8469 
E_coul   =   5683021.4444 E_long   =  -7403812.2201 Press    =       -14.9819 
Volume   =   8338320.8809 
---------------- Step     3750 ----- CPU =   1744.2993 (sec) ----------------
TotEng   =   -679623.8515 KinEng   =    581500.0268 Temp     =       300.3134 
PotEng   =  -1261123.8783 E_bond   =     69506.5001 E_angle  =    298188.0277 
E_dihed  =    141989.8354 E_impro  =      6088.4477 E_vdwl   =    -56315.7766 
E_coul   =   5683225.4448 E_long   =  -7403806.3575 Press    =        27.0941 
Volume   =   8338294.0100 
---------------- Step     3800 ----- CPU =   1767.9093 (sec) ----------------
TotEng   =   -681154.7727 KinEng   =    580313.2863 Temp     =       299.7006 
PotEng   =  -1261468.0590 E_bond   =     69291.7055 E_angle  =    297757.1051 
E_dihed  =    142396.6618 E_impro  =      5979.3249 E_vdwl   =    -55292.7935 
E_coul   =   5682120.4592 E_long   =  -7403720.5220 Press    =        19.6544 
Volume   =   8338659.8933 
---------------- Step     3850 ----- CPU =   1791.0739 (sec) ----------------
TotEng   =   -682002.3781 KinEng   =    580016.1039 Temp     =       299.5471 
PotEng   =  -1262018.4821 E_bond   =     69542.5883 E_angle  =    297473.0100 
E_dihed  =    142098.0498 E_impro  =      6076.4260 E_vdwl   =    -55141.2596 
E_coul   =   5681776.7278 E_long   =  -7403844.0244 Press    =         9.5382 
Volume   =   8338297.8069 
---------------- Step     3900 ----- CPU =   1814.2383 (sec) ----------------
TotEng   =   -681587.2746 KinEng   =    581424.6793 Temp     =       300.2745 
PotEng   =  -1263011.9540 E_bond   =     69435.3798 E_angle  =    297676.4902 
E_dihed  =    142163.6543 E_impro  =      5966.6165 E_vdwl   =    -55529.1922 
E_coul   =   5681168.7799 E_long   =  -7403893.6826 Press    =       -30.9672 
Volume   =   8337857.8461 
---------------- Step     3950 ----- CPU =   1837.8963 (sec) ----------------
TotEng   =   -680757.6335 KinEng   =    581036.3289 Temp     =       300.0740 
PotEng   =  -1261793.9624 E_bond   =     69341.5867 E_angle  =    298202.1874 
E_dihed  =    142183.2399 E_impro  =      6058.7880 E_vdwl   =    -55696.3415 
E_coul   =   5681876.0177 E_long   =  -7403759.4407 Press    =        45.3826 
Volume   =   8338350.3937 
---------------- Step     4000 ----- CPU =   1861.0406 (sec) ----------------
TotEng   =   -680210.9319 KinEng   =    581548.6225 Temp     =       300.3385 
PotEng   =  -1261759.5545 E_bond   =     69646.0465 E_angle  =    298222.3989 
E_dihed  =    142263.6778 E_impro  =      6113.9585 E_vdwl   =    -55950.7567 
E_coul   =   5681756.9089 E_long   =  -7403811.7884 Press    =        24.4298 
Volume   =   8339200.5581 
---------------- Step     4050 ----- CPU =   1884.6574 (sec) ----------------
TotEng   =   -680432.4526 KinEng   =    581158.8944 Temp     =       300.1373 
PotEng   =  -1261591.3470 E_bond   =     69938.9687 E_angle  =    298433.6587 
E_dihed  =    142004.8436 E_impro  =      6047.6959 E_vdwl   =    -55971.8961 
E_coul   =   5681766.9835 E_long   =  -7403811.6013 Press    =       -40.5073 
Volume   =   8339734.1016 
---------------- Step     4100 ----- CPU =   1907.8267 (sec) ----------------
TotEng   =   -681099.7270 KinEng   =    580967.3464 Temp     =       300.0383 
PotEng   =  -1262067.0734 E_bond   =     69574.2646 E_angle  =    297933.3090 
E_dihed  =    142271.9047 E_impro  =      6021.3938 E_vdwl   =    -54751.9606 
E_coul   =   5680733.2783 E_long   =  -7403849.2632 Press    =        42.9790 
Volume   =   8339605.1368 
---------------- Step     4150 ----- CPU =   1931.4387 (sec) ----------------
TotEng   =   -681428.3777 KinEng   =    581154.3007 Temp     =       300.1349 
PotEng   =  -1262582.6784 E_bond   =     69412.0951 E_angle  =    297818.8180 
E_dihed  =    142162.8143 E_impro  =      5959.8871 E_vdwl   =    -55840.2942 
E_coul   =   5681704.1567 E_long   =  -7403800.1553 Press    =        37.9414 
Volume   =   8340488.2943 
---------------- Step     4200 ----- CPU =   1954.5835 (sec) ----------------
TotEng   =   -681227.3016 KinEng   =    581085.7109 Temp     =       300.0995 
PotEng   =  -1262313.0125 E_bond   =     69841.6074 E_angle  =    298131.8372 
E_dihed  =    141964.3325 E_impro  =      6030.4093 E_vdwl   =    -56073.1953 
E_coul   =   5681646.7803 E_long   =  -7403854.7837 Press    =       -19.4622 
Volume   =   8341651.0574 
---------------- Step     4250 ----- CPU =   1977.6840 (sec) ----------------
TotEng   =   -680676.9306 KinEng   =    580482.0879 Temp     =       299.7877 
PotEng   =  -1261159.0185 E_bond   =     69462.3313 E_angle  =    298345.3096 
E_dihed  =    142062.1940 E_impro  =      6143.8835 E_vdwl   =    -56364.4775 
E_coul   =   5682993.9899 E_long   =  -7403802.2494 Press    =        13.8242 
Volume   =   8342324.8428 
---------------- Step     4300 ----- CPU =   2000.7933 (sec) ----------------
TotEng   =   -679821.4360 KinEng   =    580662.2333 Temp     =       299.8808 
PotEng   =  -1260483.6693 E_bond   =     69558.5194 E_angle  =    298617.1848 
E_dihed  =    142454.8958 E_impro  =      5982.2273 E_vdwl   =    -55162.5178 
E_coul   =   5681924.4152 E_long   =  -7403858.3941 Press    =        18.6180 
Volume   =   8342515.7176 
---------------- Step     4350 ----- CPU =   2024.3624 (sec) ----------------
TotEng   =   -679302.3878 KinEng   =    581942.3288 Temp     =       300.5419 
PotEng   =  -1261244.7166 E_bond   =     69553.3716 E_angle  =    298703.6353 
E_dihed  =    141957.7283 E_impro  =      6076.7624 E_vdwl   =    -55709.9216 
E_coul   =   5681936.0229 E_long   =  -7403762.3155 Press    =        43.3538 
Volume   =   8341745.5296 
---------------- Step     4400 ----- CPU =   2047.4632 (sec) ----------------
TotEng   =   -680264.2785 KinEng   =    581212.0960 Temp     =       300.1647 
PotEng   =  -1261476.3745 E_bond   =     69580.6026 E_angle  =    298480.6915 
E_dihed  =    142193.5404 E_impro  =      6156.6900 E_vdwl   =    -56372.7389 
E_coul   =   5682261.4539 E_long   =  -7403776.6139 Press    =       -87.9086 
Volume   =   8340900.3756 
---------------- Step     4450 ----- CPU =   2071.0536 (sec) ----------------
TotEng   =   -681630.5784 KinEng   =    580449.4030 Temp     =       299.7708 
PotEng   =  -1262079.9814 E_bond   =     69499.1100 E_angle  =    298597.9398 
E_dihed  =    142178.9372 E_impro  =      6143.7572 E_vdwl   =    -56275.9309 
E_coul   =   5681546.5512 E_long   =  -7403770.3459 Press    =        16.0162 
Volume   =   8339015.3833 
---------------- Step     4500 ----- CPU =   2094.2064 (sec) ----------------
TotEng   =   -682252.0606 KinEng   =    580217.2187 Temp     =       299.6509 
PotEng   =  -1262469.2793 E_bond   =     69577.4623 E_angle  =    297838.7835 
E_dihed  =    142250.2160 E_impro  =      5971.5445 E_vdwl   =    -55793.5876 
E_coul   =   5681458.5784 E_long   =  -7403772.2765 Press    =       -16.3012 
Volume   =   8336515.7575 
---------------- Step     4550 ----- CPU =   2117.8030 (sec) ----------------
TotEng   =   -681847.3587 KinEng   =    580262.9329 Temp     =       299.6745 
PotEng   =  -1262110.2916 E_bond   =     69879.5087 E_angle  =    298209.6701 
E_dihed  =    141873.3351 E_impro  =      6024.5131 E_vdwl   =    -54944.7733 
E_coul   =   5680667.9025 E_long   =  -7403820.4478 Press    =        26.4132 
Volume   =   8334106.0878 
---------------- Step     4600 ----- CPU =   2141.3905 (sec) ----------------
TotEng   =   -681115.2048 KinEng   =    581335.8981 Temp     =       300.2287 
PotEng   =  -1262451.1030 E_bond   =     69389.3769 E_angle  =    297726.9203 
E_dihed  =    142315.5027 E_impro  =      6042.8092 E_vdwl   =    -54927.2846 
E_coul   =   5680868.8639 E_long   =  -7403867.2913 Press    =       114.5405 
Volume   =   8332660.4776 
---------------- Step     4650 ----- CPU =   2164.5547 (sec) ----------------
TotEng   =   -680633.0744 KinEng   =    580311.6128 Temp     =       299.6997 
PotEng   =  -1260944.6872 E_bond   =     69744.8084 E_angle  =    298925.0996 
E_dihed  =    142544.5072 E_impro  =      6008.1988 E_vdwl   =    -55510.6611 
E_coul   =   5681093.7708 E_long   =  -7403750.4109 Press    =        14.3740 
Volume   =   8332447.9994 
---------------- Step     4700 ----- CPU =   2188.1771 (sec) ----------------
TotEng   =   -680345.5993 KinEng   =    580691.5145 Temp     =       299.8959 
PotEng   =  -1261037.1138 E_bond   =     69808.8066 E_angle  =    299108.3237 
E_dihed  =    142295.4471 E_impro  =      6006.0391 E_vdwl   =    -55633.3100 
E_coul   =   5681089.8516 E_long   =  -7403712.2720 Press    =        42.3698 
Volume   =   8332388.0394 
---------------- Step     4750 ----- CPU =   2211.3187 (sec) ----------------
TotEng   =   -680653.8368 KinEng   =    581835.7053 Temp     =       300.4868 
PotEng   =  -1262489.5422 E_bond   =     69591.8559 E_angle  =    298980.3992 
E_dihed  =    142109.2803 E_impro  =      5992.9796 E_vdwl   =    -57297.6108 
E_coul   =   5681906.3682 E_long   =  -7403772.8145 Press    =        -3.1869 
Volume   =   8332831.3492 
---------------- Step     4800 ----- CPU =   2234.4998 (sec) ----------------
TotEng   =   -681361.3861 KinEng   =    580596.5094 Temp     =       299.8468 
PotEng   =  -1261957.8956 E_bond   =     69702.2794 E_angle  =    298520.5850 
E_dihed  =    141985.3703 E_impro  =      5984.4674 E_vdwl   =    -55613.0614 
E_coul   =   5681169.3043 E_long   =  -7403706.8406 Press    =       -75.8597 
Volume   =   8332831.3253 
---------------- Step     4850 ----- CPU =   2258.1412 (sec) ----------------
TotEng   =   -682046.1137 KinEng   =    580786.5399 Temp     =       299.9450 
PotEng   =  -1262832.6536 E_bond   =     69686.6094 E_angle  =    298203.6169 
E_dihed  =    142352.1555 E_impro  =      6074.5985 E_vdwl   =    -54917.6363 
E_coul   =   5679491.4843 E_long   =  -7403723.4819 Press    =       -30.3442 
Volume   =   8333047.1433 
---------------- Step     4900 ----- CPU =   2281.3171 (sec) ----------------
TotEng   =   -682060.3631 KinEng   =    580132.3260 Temp     =       299.6071 
PotEng   =  -1262192.6891 E_bond   =     69761.9304 E_angle  =    298351.2527 
E_dihed  =    142268.6280 E_impro  =      6119.8165 E_vdwl   =    -56176.5337 
E_coul   =   5681259.0934 E_long   =  -7403776.8765 Press    =        52.2305 
Volume   =   8333547.2090 
---------------- Step     4950 ----- CPU =   2304.9587 (sec) ----------------
TotEng   =   -681276.9631 KinEng   =    581317.5359 Temp     =       300.2192 
PotEng   =  -1262594.4990 E_bond   =     69949.1155 E_angle  =    298591.1103 
E_dihed  =    142007.5893 E_impro  =      6060.7814 E_vdwl   =    -55476.9674 
E_coul   =   5680031.8602 E_long   =  -7403757.9883 Press    =         9.9527 
Volume   =   8333895.0054 
---------------- Step     5000 ----- CPU =   2328.1531 (sec) ----------------
TotEng   =   -680927.3473 KinEng   =    580602.7150 Temp     =       299.8500 
PotEng   =  -1261530.0623 E_bond   =     69746.0827 E_angle  =    298387.3051 
E_dihed  =    142183.1473 E_impro  =      6133.0681 E_vdwl   =    -54962.8013 
E_coul   =   5680756.1024 E_long   =  -7403772.9666 Press    =       -24.6149 
Volume   =   8334500.8567 
---------------- Step     5050 ----- CPU =   2351.2933 (sec) ----------------
TotEng   =   -680584.8625 KinEng   =    580892.2808 Temp     =       299.9996 
PotEng   =  -1261477.1433 E_bond   =     69361.6690 E_angle  =    299407.7410 
E_dihed  =    142233.3057 E_impro  =      6028.2587 E_vdwl   =    -56278.5051 
E_coul   =   5681506.8556 E_long   =  -7403736.4683 Press    =       -18.6150 
Volume   =   8335928.0810 
---------------- Step     5100 ----- CPU =   2374.4499 (sec) ----------------
TotEng   =   -680681.9439 KinEng   =    581012.7883 Temp     =       300.0618 
PotEng   =  -1261694.7322 E_bond   =     69835.1852 E_angle  =    299337.1664 
E_dihed  =    142585.3222 E_impro  =      6039.6036 E_vdwl   =    -55819.5491 
E_coul   =   5680013.4979 E_long   =  -7403685.9583 Press    =        -7.1780 
Volume   =   8337317.8897 
---------------- Step     5150 ----- CPU =   2398.0666 (sec) ----------------
TotEng   =   -681791.7319 KinEng   =    580959.0536 Temp     =       300.0341 
PotEng   =  -1262750.7855 E_bond   =     69661.0927 E_angle  =    298801.8833 
E_dihed  =    142468.8303 E_impro  =      6106.7981 E_vdwl   =    -56292.4607 
E_coul   =   5680275.5451 E_long   =  -7403772.4743 Press    =       -50.4191 
Volume   =   8337589.4872 
---------------- Step     5200 ----- CPU =   2421.2207 (sec) ----------------
TotEng   =   -682477.1557 KinEng   =    579942.3351 Temp     =       299.5090 
PotEng   =  -1262419.4908 E_bond   =     69754.6044 E_angle  =    298586.4925 
E_dihed  =    142553.8622 E_impro  =      6060.3230 E_vdwl   =    -55380.9890 
E_coul   =   5679728.2201 E_long   =  -7403722.0039 Press    =       -36.2802 
Volume   =   8336547.0366 
---------------- Step     5250 ----- CPU =   2444.3711 (sec) ----------------
TotEng   =   -682239.2084 KinEng   =    581427.4403 Temp     =       300.2760 
PotEng   =  -1263666.6487 E_bond   =     69403.5056 E_angle  =    298199.8140 
E_dihed  =    142212.1826 E_impro  =      6024.5415 E_vdwl   =    -56218.2588 
E_coul   =   5680443.3233 E_long   =  -7403731.7569 Press    =       -13.5601 
Volume   =   8335022.7220 
---------------- Step     5300 ----- CPU =   2468.0154 (sec) ----------------
TotEng   =   -681424.0593 KinEng   =    581849.1864 Temp     =       300.4938 
PotEng   =  -1263273.2456 E_bond   =     69499.1387 E_angle  =    299029.3868 
E_dihed  =    142035.5983 E_impro  =      5918.5038 E_vdwl   =    -55597.4222 
E_coul   =   5679659.8947 E_long   =  -7403818.3458 Press    =         1.9486 
Volume   =   8333014.0191 
---------------- Step     5350 ----- CPU =   2491.1922 (sec) ----------------
TotEng   =   -680924.9853 KinEng   =    581370.5751 Temp     =       300.2466 
PotEng   =  -1262295.5604 E_bond   =     69586.8959 E_angle  =    299160.9363 
E_dihed  =    142540.8863 E_impro  =      6025.8197 E_vdwl   =    -56284.8845 
E_coul   =   5680486.6707 E_long   =  -7403811.8847 Press    =        29.4018 
Volume   =   8331235.5992 
---------------- Step     5400 ----- CPU =   2514.8128 (sec) ----------------
TotEng   =   -681172.1324 KinEng   =    581226.7593 Temp     =       300.1723 
PotEng   =  -1262398.8917 E_bond   =     69849.6170 E_angle  =    298976.5914 
E_dihed  =    142395.9844 E_impro  =      6117.3683 E_vdwl   =    -55651.7704 
E_coul   =   5679801.8551 E_long   =  -7403888.5374 Press    =       -15.7787 
Volume   =   8329921.0385 
---------------- Step     5450 ----- CPU =   2538.0117 (sec) ----------------
TotEng   =   -682156.8446 KinEng   =    580407.8267 Temp     =       299.7494 
PotEng   =  -1262564.6714 E_bond   =     69688.5118 E_angle  =    298470.2632 
E_dihed  =    142228.5205 E_impro  =      6050.1275 E_vdwl   =    -54559.1575 
E_coul   =   5679366.4276 E_long   =  -7403809.3644 Press    =        65.5173 
Volume   =   8328930.1540 
---------------- Step     5500 ----- CPU =   2561.6540 (sec) ----------------
TotEng   =   -682642.2751 KinEng   =    581134.5573 Temp     =       300.1247 
PotEng   =  -1263776.8324 E_bond   =     69667.2060 E_angle  =    299057.9766 
E_dihed  =    141950.4005 E_impro  =      6064.7844 E_vdwl   =    -55855.6225 
E_coul   =   5679180.8513 E_long   =  -7403842.4287 Press    =       -21.9066 
Volume   =   8328986.8075 
---------------- Step     5550 ----- CPU =   2584.8449 (sec) ----------------
TotEng   =   -682923.6710 KinEng   =    581278.1185 Temp     =       300.1988 
PotEng   =  -1264201.7895 E_bond   =     69634.6468 E_angle  =    298663.4300 
E_dihed  =    142017.7091 E_impro  =      6049.9679 E_vdwl   =    -55662.3172 
E_coul   =   5678887.4551 E_long   =  -7403792.6812 Press    =        24.9005 
Volume   =   8329744.3273 
---------------- Step     5600 ----- CPU =   2608.0297 (sec) ----------------
TotEng   =   -682637.5096 KinEng   =    580870.2666 Temp     =       299.9882 
PotEng   =  -1263507.7762 E_bond   =     69545.1378 E_angle  =    298514.5359 
E_dihed  =    142061.6394 E_impro  =      5985.5659 E_vdwl   =    -55603.7682 
E_coul   =   5679734.5448 E_long   =  -7403745.4318 Press    =        21.6448 
Volume   =   8331041.2868 
---------------- Step     5650 ----- CPU =   2631.6471 (sec) ----------------
TotEng   =   -681955.6592 KinEng   =    580155.9055 Temp     =       299.6193 
PotEng   =  -1262111.5648 E_bond   =     69678.8347 E_angle  =    299069.0937 
E_dihed  =    142387.7090 E_impro  =      6096.1141 E_vdwl   =    -56416.8663 
E_coul   =   5680833.1053 E_long   =  -7403759.5553 Press    =        -5.0939 
Volume   =   8331885.1896 
---------------- Step     5700 ----- CPU =   2654.7795 (sec) ----------------
TotEng   =   -680830.6714 KinEng   =    581297.0866 Temp     =       300.2086 
PotEng   =  -1262127.7581 E_bond   =     69842.5298 E_angle  =    299193.8791 
E_dihed  =    142296.1548 E_impro  =      6041.8027 E_vdwl   =    -56086.7219 
E_coul   =   5680388.6023 E_long   =  -7403804.0049 Press    =       -69.7278 
Volume   =   8332350.8212 
---------------- Step     5750 ----- CPU =   2677.9122 (sec) ----------------
TotEng   =   -680541.2986 KinEng   =    581330.1261 Temp     =       300.2257 
PotEng   =  -1261871.4246 E_bond   =     69782.4914 E_angle  =    299009.6375 
E_dihed  =    142166.4629 E_impro  =      6113.1734 E_vdwl   =    -56122.7917 
E_coul   =   5680927.2688 E_long   =  -7403747.6668 Press    =       -59.6616 
Volume   =   8332177.6230 
---------------- Step     5800 ----- CPU =   2701.0719 (sec) ----------------
TotEng   =   -680942.1650 KinEng   =    580969.3530 Temp     =       300.0394 
PotEng   =  -1261911.5180 E_bond   =     69741.1933 E_angle  =    299203.2892 
E_dihed  =    142261.4429 E_impro  =      6012.6218 E_vdwl   =    -56150.1230 
E_coul   =   5680811.7594 E_long   =  -7403791.7016 Press    =        13.3507 
Volume   =   8331611.9623 
---------------- Step     5850 ----- CPU =   2724.7074 (sec) ----------------
TotEng   =   -681859.0215 KinEng   =    580799.3046 Temp     =       299.9516 
PotEng   =  -1262658.3261 E_bond   =     69834.4615 E_angle  =    299332.9359 
E_dihed  =    141994.8459 E_impro  =      6067.9356 E_vdwl   =    -56141.2999 
E_coul   =   5680110.6056 E_long   =  -7403857.8106 Press    =       -50.7788 
Volume   =   8332306.0329 
---------------- Step     5900 ----- CPU =   2748.3391 (sec) ----------------
TotEng   =   -682792.6288 KinEng   =    580410.0666 Temp     =       299.7505 
PotEng   =  -1263202.6954 E_bond   =     69471.8024 E_angle  =    298769.2644 
E_dihed  =    142400.2302 E_impro  =      6094.1411 E_vdwl   =    -55661.2220 
E_coul   =   5679532.7979 E_long   =  -7403809.7093 Press    =        87.1841 
Volume   =   8332406.1886 
---------------- Step     5950 ----- CPU =   2771.4927 (sec) ----------------
TotEng   =   -682797.1193 KinEng   =    581179.2583 Temp     =       300.1478 
PotEng   =  -1263976.3776 E_bond   =     69876.8433 E_angle  =    298614.1494 
E_dihed  =    142147.4677 E_impro  =      5997.2493 E_vdwl   =    -55760.0896 
E_coul   =   5678911.5596 E_long   =  -7403763.5572 Press    =       -12.2407 
Volume   =   8332243.2324 
---------------- Step     6000 ----- CPU =   2794.6326 (sec) ----------------
TotEng   =   -682046.2381 KinEng   =    580488.5491 Temp     =       299.7911 
PotEng   =  -1262534.7872 E_bond   =     69888.7566 E_angle  =    299024.7231 
E_dihed  =    142175.7653 E_impro  =      6016.6089 E_vdwl   =    -55671.7688 
E_coul   =   5679819.1658 E_long   =  -7403788.0383 Press    =        -3.3358 
Volume   =   8331879.1662 
---------------- Step     6050 ----- CPU =   2818.2653 (sec) ----------------
TotEng   =   -681217.0300 KinEng   =    581827.4537 Temp     =       300.4825 
PotEng   =  -1263044.4837 E_bond   =     69919.7167 E_angle  =    298627.6609 
E_dihed  =    142562.8843 E_impro  =      6105.2174 E_vdwl   =    -55999.1840 
E_coul   =   5679518.4436 E_long   =  -7403779.2227 Press    =       -51.4868 
Volume   =   8331558.9653 
---------------- Step     6100 ----- CPU =   2841.3948 (sec) ----------------
TotEng   =   -681050.0580 KinEng   =    580817.3254 Temp     =       299.9609 
PotEng   =  -1261867.3833 E_bond   =     69870.1949 E_angle  =    298952.4939 
E_dihed  =    142505.2844 E_impro  =      6003.5522 E_vdwl   =    -56201.8579 
E_coul   =   5680703.6793 E_long   =  -7403700.7302 Press    =       -13.2164 
Volume   =   8331030.2537 
---------------- Step     6150 ----- CPU =   2865.0132 (sec) ----------------
TotEng   =   -681300.7677 KinEng   =    580684.5775 Temp     =       299.8923 
PotEng   =  -1261985.3452 E_bond   =     69807.0303 E_angle  =    299484.6831 
E_dihed  =    142120.2374 E_impro  =      5968.0195 E_vdwl   =    -55276.4024 
E_coul   =   5679651.4665 E_long   =  -7403740.3795 Press    =        14.4992 
Volume   =   8330922.8738 
---------------- Step     6200 ----- CPU =   2888.1543 (sec) ----------------
TotEng   =   -681510.5517 KinEng   =    581078.6131 Temp     =       300.0958 
PotEng   =  -1262589.1648 E_bond   =     69982.4642 E_angle  =    299236.9075 
E_dihed  =    142175.2750 E_impro  =      5983.5397 E_vdwl   =    -55367.1054 
E_coul   =   5679210.3586 E_long   =  -7403810.6043 Press    =       -72.0508 
Volume   =   8331249.8708 
---------------- Step     6250 ----- CPU =   2911.7565 (sec) ----------------
TotEng   =   -681991.5963 KinEng   =    580757.7784 Temp     =       299.9301 
PotEng   =  -1262749.3747 E_bond   =     69589.4855 E_angle  =    298655.9567 
E_dihed  =    142459.4034 E_impro  =      6082.2996 E_vdwl   =    -55860.1025 
E_coul   =   5680175.4428 E_long   =  -7403851.8602 Press    =        30.1617 
Volume   =   8331608.2090 
---------------- Step     6300 ----- CPU =   2934.8645 (sec) ----------------
TotEng   =   -682306.3192 KinEng   =    580072.5205 Temp     =       299.5762 
PotEng   =  -1262378.8398 E_bond   =     69961.1239 E_angle  =    299173.9315 
E_dihed  =    142103.8727 E_impro  =      6103.7242 E_vdwl   =    -55781.0188 
E_coul   =   5679835.1745 E_long   =  -7403775.6477 Press    =       -93.2736 
Volume   =   8332289.8056 
---------------- Step     6350 ----- CPU =   2958.0332 (sec) ----------------
TotEng   =   -681692.1975 KinEng   =    580994.2394 Temp     =       300.0522 
PotEng   =  -1262686.4368 E_bond   =     69472.6535 E_angle  =    299027.6397 
E_dihed  =    142119.4255 E_impro  =      5992.8994 E_vdwl   =    -55539.6402 
E_coul   =   5679945.6331 E_long   =  -7403705.0479 Press    =        46.5292 
Volume   =   8332159.0899 
---------------- Step     6400 ----- CPU =   2981.1940 (sec) ----------------
TotEng   =   -681015.6340 KinEng   =    581304.8748 Temp     =       300.2127 
PotEng   =  -1262320.5088 E_bond   =     69961.5953 E_angle  =    299627.3050 
E_dihed  =    142200.9633 E_impro  =      6055.1892 E_vdwl   =    -56505.4103 
E_coul   =   5680091.9452 E_long   =  -7403752.0964 Press    =       -63.7272 
Volume   =   8331487.1146 
---------------- Step     6450 ----- CPU =   3004.8014 (sec) ----------------
TotEng   =   -681066.9090 KinEng   =    582046.3529 Temp     =       300.5956 
PotEng   =  -1263113.2619 E_bond   =     69513.5868 E_angle  =    298573.8677 
E_dihed  =    142068.7980 E_impro  =      6128.3324 E_vdwl   =    -55393.3128 
E_coul   =   5679788.5799 E_long   =  -7403793.1139 Press    =       -51.2765 
Volume   =   8330829.0193 
---------------- Step     6500 ----- CPU =   3027.9547 (sec) ----------------
TotEng   =   -682149.7334 KinEng   =    580316.2576 Temp     =       299.7021 
PotEng   =  -1262465.9910 E_bond   =     69753.6788 E_angle  =    299676.6736 
E_dihed  =    142137.6821 E_impro  =      6078.4091 E_vdwl   =    -54957.5811 
E_coul   =   5678576.6913 E_long   =  -7403731.5448 Press    =        -9.2217 
Volume   =   8329908.7227 
---------------- Step     6550 ----- CPU =   3051.5676 (sec) ----------------
TotEng   =   -682944.4160 KinEng   =    580312.0471 Temp     =       299.6999 
PotEng   =  -1263256.4630 E_bond   =     70249.4408 E_angle  =    298347.0355 
E_dihed  =    142115.5006 E_impro  =      5963.4504 E_vdwl   =    -54824.9374 
E_coul   =   5678644.7381 E_long   =  -7403751.6910 Press    =        27.5685 
Volume   =   8329359.4566 
---------------- Step     6600 ----- CPU =   3074.7634 (sec) ----------------
TotEng   =   -683106.4143 KinEng   =    580858.4215 Temp     =       299.9821 
PotEng   =  -1263964.8358 E_bond   =     69645.5468 E_angle  =    299172.7198 
E_dihed  =    142217.2847 E_impro  =      6024.6543 E_vdwl   =    -55661.9985 
E_coul   =   5678445.4939 E_long   =  -7403808.5369 Press    =        -6.2733 
Volume   =   8329148.2894 
---------------- Step     6650 ----- CPU =   3097.9601 (sec) ----------------
TotEng   =   -682770.8682 KinEng   =    580160.4319 Temp     =       299.6216 
PotEng   =  -1262931.3000 E_bond   =     69832.9407 E_angle  =    298815.4886 
E_dihed  =    142338.5919 E_impro  =      6191.8368 E_vdwl   =    -55257.7666 
E_coul   =   5679013.3557 E_long   =  -7403865.7472 Press    =       -43.4636 
Volume   =   8329285.3219 
---------------- Step     6700 ----- CPU =   3121.5973 (sec) ----------------
TotEng   =   -681871.8470 KinEng   =    581096.9944 Temp     =       300.1053 
PotEng   =  -1262968.8414 E_bond   =     69586.8315 E_angle  =    299626.6394 
E_dihed  =    141979.1901 E_impro  =      6049.1188 E_vdwl   =    -55900.9112 
E_coul   =   5679484.7264 E_long   =  -7403794.4364 Press    =        -0.2330 
Volume   =   8329699.5212 
---------------- Step     6750 ----- CPU =   3144.7764 (sec) ----------------
TotEng   =   -681477.9367 KinEng   =    580849.4238 Temp     =       299.9774 
PotEng   =  -1262327.3605 E_bond   =     69728.6690 E_angle  =    299841.4871 
E_dihed  =    142191.1058 E_impro  =      6126.4324 E_vdwl   =    -56163.8107 
E_coul   =   5679792.5396 E_long   =  -7403843.7838 Press    =      -113.8942 
Volume   =   8330369.7485 
---------------- Step     6800 ----- CPU =   3168.4172 (sec) ----------------
TotEng   =   -681726.3934 KinEng   =    580810.9269 Temp     =       299.9576 
PotEng   =  -1262537.3202 E_bond   =     69832.8933 E_angle  =    299287.7829 
E_dihed  =    141945.4620 E_impro  =      6058.7511 E_vdwl   =    -55497.7721 
E_coul   =   5679664.6130 E_long   =  -7403829.0504 Press    =        22.5859 
Volume   =   8330520.0855 
---------------- Step     6850 ----- CPU =   3191.6149 (sec) ----------------
TotEng   =   -682377.4096 KinEng   =    580970.2105 Temp     =       300.0398 
PotEng   =  -1263347.6201 E_bond   =     69740.0906 E_angle  =    298946.6290 
E_dihed  =    141992.1776 E_impro  =      6006.7236 E_vdwl   =    -54803.3500 
E_coul   =   5678622.7681 E_long   =  -7403852.6590 Press    =       -17.0181 
Volume   =   8330703.8335 
---------------- Step     6900 ----- CPU =   3214.7738 (sec) ----------------
TotEng   =   -683190.4279 KinEng   =    580676.6798 Temp     =       299.8882 
PotEng   =  -1263867.1077 E_bond   =     69832.8630 E_angle  =    298875.7920 
E_dihed  =    142373.8975 E_impro  =      6025.7731 E_vdwl   =    -56414.1930 
E_coul   =   5679267.3802 E_long   =  -7403828.6205 Press    =       -47.7688 
Volume   =   8331346.3914 
---------------- Step     6950 ----- CPU =   3238.4076 (sec) ----------------
TotEng   =   -683283.0723 KinEng   =    580549.7486 Temp     =       299.8227 
PotEng   =  -1263832.8209 E_bond   =     69860.1051 E_angle  =    298522.3109 
E_dihed  =    142198.5061 E_impro  =      6084.3535 E_vdwl   =    -55390.8381 
E_coul   =   5678659.2083 E_long   =  -7403766.4668 Press    =       -84.7857 
Volume   =   8331111.8273 
---------------- Step     7000 ----- CPU =   3261.5234 (sec) ----------------
TotEng   =   -682595.8672 KinEng   =    580421.0931 Temp     =       299.7562 
PotEng   =  -1263016.9603 E_bond   =     69813.0246 E_angle  =    299337.5550 
E_dihed  =    142424.3156 E_impro  =      5960.1883 E_vdwl   =    -55501.5001 
E_coul   =   5678765.3066 E_long   =  -7403815.8504 Press    =         3.9899 
Volume   =   8330056.5002 
---------------- Step     7050 ----- CPU =   3285.1227 (sec) ----------------
TotEng   =   -681583.3626 KinEng   =    581427.3391 Temp     =       300.2759 
PotEng   =  -1263010.7017 E_bond   =     69795.9877 E_angle  =    299903.1401 
E_dihed  =    142013.8240 E_impro  =      6092.2930 E_vdwl   =    -55540.0473 
E_coul   =   5678519.1317 E_long   =  -7403795.0309 Press    =       -62.3759 
Volume   =   8328929.6254 
---------------- Step     7100 ----- CPU =   3308.2744 (sec) ----------------
TotEng   =   -681418.3744 KinEng   =    581348.5104 Temp     =       300.2352 
PotEng   =  -1262766.8848 E_bond   =     69630.0144 E_angle  =    299372.1241 
E_dihed  =    142163.0451 E_impro  =      6127.6024 E_vdwl   =    -55272.0559 
E_coul   =   5679036.2507 E_long   =  -7403823.8654 Press    =       124.0773 
Volume   =   8327748.2585 
---------------- Step     7150 ----- CPU =   3331.4514 (sec) ----------------
TotEng   =   -682021.7332 KinEng   =    580648.0005 Temp     =       299.8734 
PotEng   =  -1262669.7336 E_bond   =     69761.3742 E_angle  =    299680.0659 
E_dihed  =    142115.9846 E_impro  =      6068.3685 E_vdwl   =    -55618.7429 
E_coul   =   5679182.1288 E_long   =  -7403858.9125 Press    =        28.6397 
Volume   =   8327360.1802 
---------------- Step     7200 ----- CPU =   3355.0808 (sec) ----------------
TotEng   =   -683110.2632 KinEng   =    580542.5027 Temp     =       299.8189 
PotEng   =  -1263652.7659 E_bond   =     69999.4477 E_angle  =    299370.9746 
E_dihed  =    141795.8731 E_impro  =      6069.4510 E_vdwl   =    -55071.9432 
E_coul   =   5677996.6943 E_long   =  -7403813.2634 Press    =       -22.0114 
Volume   =   8327274.6370 
---------------- Step     7250 ----- CPU =   3378.2384 (sec) ----------------
TotEng   =   -683724.5611 KinEng   =    579954.5469 Temp     =       299.5153 
PotEng   =  -1263679.1080 E_bond   =     70416.0763 E_angle  =    299601.5814 
E_dihed  =    141961.1762 E_impro  =      6048.2701 E_vdwl   =    -55659.5997 
E_coul   =   5677794.0008 E_long   =  -7403840.6132 Press    =       -73.6443 
Volume   =   8327877.9852 
---------------- Step     7300 ----- CPU =   3401.4190 (sec) ----------------
TotEng   =   -683487.1160 KinEng   =    580295.1805 Temp     =       299.6912 
PotEng   =  -1263782.2965 E_bond   =     70114.9985 E_angle  =    299152.4955 
E_dihed  =    142099.9794 E_impro  =      6006.2165 E_vdwl   =    -55931.0933 
E_coul   =   5678689.5019 E_long   =  -7403914.3951 Press    =       -63.8042 
Volume   =   8328622.3383 
---------------- Step     7350 ----- CPU =   3425.0339 (sec) ----------------
TotEng   =   -682739.2351 KinEng   =    580922.9845 Temp     =       300.0154 
PotEng   =  -1263662.2196 E_bond   =     70156.0269 E_angle  =    299003.4280 
E_dihed  =    141971.4213 E_impro  =      6149.6386 E_vdwl   =    -55483.2155 
E_coul   =   5678374.0714 E_long   =  -7403833.5903 Press    =       -30.2924 
Volume   =   8329290.5063 
---------------- Step     7400 ----- CPU =   3448.6293 (sec) ----------------
TotEng   =   -682086.3764 KinEng   =    581133.0145 Temp     =       300.1239 
PotEng   =  -1263219.3909 E_bond   =     69923.9326 E_angle  =    299778.8489 
E_dihed  =    142035.1889 E_impro  =      6057.0855 E_vdwl   =    -55614.2054 
E_coul   =   5678411.8083 E_long   =  -7403812.0497 Press    =         4.2004 
Volume   =   8329868.7614 
---------------- Step     7450 ----- CPU =   3471.7690 (sec) ----------------
TotEng   =   -681987.4437 KinEng   =    580795.3550 Temp     =       299.9495 
PotEng   =  -1262782.7988 E_bond   =     70053.7810 E_angle  =    299507.1737 
E_dihed  =    142198.9080 E_impro  =      5936.2985 E_vdwl   =    -55765.6940 
E_coul   =   5679046.8638 E_long   =  -7403760.1297 Press    =       -46.1952 
Volume   =   8330940.6577 
---------------- Step     7500 ----- CPU =   3494.9479 (sec) ----------------
TotEng   =   -682240.7156 KinEng   =    580906.9380 Temp     =       300.0071 
PotEng   =  -1263147.6537 E_bond   =     69960.5069 E_angle  =    299430.6497 
E_dihed  =    141827.2348 E_impro  =      6039.5863 E_vdwl   =    -56352.7223 
E_coul   =   5679657.4814 E_long   =  -7403710.3904 Press    =      -105.6248 
Volume   =   8331732.5829 
---------------- Step     7550 ----- CPU =   3518.5490 (sec) ----------------
TotEng   =   -682632.6800 KinEng   =    580972.6913 Temp     =       300.0411 
PotEng   =  -1263605.3713 E_bond   =     69676.7080 E_angle  =    300079.8790 
E_dihed  =    142092.4351 E_impro  =      6019.9682 E_vdwl   =    -56262.4906 
E_coul   =   5678649.3111 E_long   =  -7403861.1820 Press    =        -5.6181 
Volume   =   8331273.0463 
---------------- Step     7600 ----- CPU =   3541.7269 (sec) ----------------
TotEng   =   -683272.5990 KinEng   =    580546.8521 Temp     =       299.8212 
PotEng   =  -1263819.4511 E_bond   =     70241.7309 E_angle  =    299092.4412 
E_dihed  =    142084.0742 E_impro  =      6069.8901 E_vdwl   =    -54743.6904 
E_coul   =   5677281.0765 E_long   =  -7403844.9738 Press    =        33.3634 
Volume   =   8329698.0365 
---------------- Step     7650 ----- CPU =   3565.3912 (sec) ----------------
TotEng   =   -683971.1401 KinEng   =    580576.8476 Temp     =       299.8367 
PotEng   =  -1264547.9877 E_bond   =     69985.4641 E_angle  =    299854.6018 
E_dihed  =    142172.0229 E_impro  =      5997.0364 E_vdwl   =    -55443.4051 
E_coul   =   5676796.4340 E_long   =  -7403910.1418 Press    =       -14.1831 
Volume   =   8328263.1501 
---------------- Step     7700 ----- CPU =   3588.5842 (sec) ----------------
TotEng   =   -684394.7762 KinEng   =    580110.9555 Temp     =       299.5961 
PotEng   =  -1264505.7317 E_bond   =     69837.8810 E_angle  =    298990.8029 
E_dihed  =    141813.0684 E_impro  =      6025.4993 E_vdwl   =    -55516.7237 
E_coul   =   5678173.2809 E_long   =  -7403829.5404 Press    =        17.6752 
Volume   =   8326792.6289 
---------------- Step     7750 ----- CPU =   3612.2189 (sec) ----------------
TotEng   =   -683890.6533 KinEng   =    580459.6298 Temp     =       299.7761 
PotEng   =  -1264350.2831 E_bond   =     69665.8614 E_angle  =    299446.3858 
E_dihed  =    141994.6288 E_impro  =      6109.8156 E_vdwl   =    -55090.5303 
E_coul   =   5677341.7615 E_long   =  -7403818.2058 Press    =        40.4908 
Volume   =   8325579.5749 
---------------- Step     7800 ----- CPU =   3635.4116 (sec) ----------------
TotEng   =   -682916.8700 KinEng   =    581150.3918 Temp     =       300.1329 
PotEng   =  -1264067.2619 E_bond   =     69657.9041 E_angle  =    299164.8117 
E_dihed  =    142165.1345 E_impro  =      6172.5866 E_vdwl   =    -53856.9088 
E_coul   =   5676428.6954 E_long   =  -7403799.4855 Press    =         2.8124 
Volume   =   8324546.3787 
---------------- Step     7850 ----- CPU =   3658.5906 (sec) ----------------
TotEng   =   -682663.1611 KinEng   =    581311.2996 Temp     =       300.2160 
PotEng   =  -1263974.4607 E_bond   =     69928.6623 E_angle  =    299828.7682 
E_dihed  =    142005.1174 E_impro  =      5977.9842 E_vdwl   =    -54432.8845 
E_coul   =   5676505.8540 E_long   =  -7403787.9622 Press    =        40.8376 
Volume   =   8323258.8201 
---------------- Step     7900 ----- CPU =   3682.2355 (sec) ----------------
TotEng   =   -683570.3950 KinEng   =    581360.5303 Temp     =       300.2414 
PotEng   =  -1264930.9253 E_bond   =     69535.9944 E_angle  =    299301.9206 
E_dihed  =    142073.5987 E_impro  =      6063.4250 E_vdwl   =    -55039.3133 
E_coul   =   5677005.8235 E_long   =  -7403872.3741 Press    =        -2.2705 
Volume   =   8322869.8725 
---------------- Step     7950 ----- CPU =   3705.3945 (sec) ----------------
TotEng   =   -684598.4461 KinEng   =    580304.4453 Temp     =       299.6960 
PotEng   =  -1264902.8914 E_bond   =     70265.4571 E_angle  =    299158.1587 
E_dihed  =    142227.8185 E_impro  =      6086.1157 E_vdwl   =    -54620.6073 
E_coul   =   5675816.3215 E_long   =  -7403836.1557 Press    =         0.5623 
Volume   =   8323594.5191 
---------------- Step     8000 ----- CPU =   3728.5552 (sec) ----------------
TotEng   =   -684211.8392 KinEng   =    580082.2152 Temp     =       299.5812 
PotEng   =  -1264294.0543 E_bond   =     69986.4512 E_angle  =    299674.4417 
E_dihed  =    142353.1356 E_impro  =      5971.7786 E_vdwl   =    -54730.8095 
E_coul   =   5676249.8132 E_long   =  -7403798.8651 Press    =        47.9141 
Volume   =   8324944.6333 
---------------- Step     8050 ----- CPU =   3752.1853 (sec) ----------------
TotEng   =   -683430.0426 KinEng   =    580667.4404 Temp     =       299.8835 
PotEng   =  -1264097.4829 E_bond   =     70107.0581 E_angle  =    299304.8635 
E_dihed  =    142358.6195 E_impro  =      6163.3581 E_vdwl   =    -54830.3516 
E_coul   =   5676662.1481 E_long   =  -7403863.1786 Press    =       -20.6159 
Volume   =   8326713.9477 
---------------- Step     8100 ----- CPU =   3775.3418 (sec) ----------------
TotEng   =   -682888.5714 KinEng   =    581425.3439 Temp     =       300.2749 
PotEng   =  -1264313.9153 E_bond   =     69772.8578 E_angle  =    300235.5865 
E_dihed  =    142155.0987 E_impro  =      6000.5615 E_vdwl   =    -54704.7784 
E_coul   =   5676041.2202 E_long   =  -7403814.4616 Press    =        25.5476 
Volume   =   8328143.2645 
---------------- Step     8150 ----- CPU =   3798.9647 (sec) ----------------
TotEng   =   -683003.6205 KinEng   =    581191.8918 Temp     =       300.1543 
PotEng   =  -1264195.5122 E_bond   =     70061.5817 E_angle  =    299360.3196 
E_dihed  =    142562.4298 E_impro  =      6078.5990 E_vdwl   =    -54961.8907 
E_coul   =   5676464.1974 E_long   =  -7403760.7490 Press    =       -65.7120 
Volume   =   8329202.9892 
---------------- Step     8200 ----- CPU =   3822.1486 (sec) ----------------
TotEng   =   -683439.5222 KinEng   =    580816.0112 Temp     =       299.9602 
PotEng   =  -1264255.5334 E_bond   =     70152.8819 E_angle  =    299257.5663 
E_dihed  =    142294.3651 E_impro  =      6155.7216 E_vdwl   =    -55846.0265 
E_coul   =   5677510.2424 E_long   =  -7403780.2842 Press    =       -89.8265 
Volume   =   8329518.8220 
---------------- Step     8250 ----- CPU =   3845.3074 (sec) ----------------
TotEng   =   -682965.9832 KinEng   =    581158.1824 Temp     =       300.1369 
PotEng   =  -1264124.1657 E_bond   =     69797.7871 E_angle  =    299513.7666 
E_dihed  =    142113.6973 E_impro  =      6107.3602 E_vdwl   =    -55468.6769 
E_coul   =   5677593.7675 E_long   =  -7403781.8674 Press    =        -9.5196 
Volume   =   8328991.8610 
---------------- Step     8300 ----- CPU =   3868.5032 (sec) ----------------
TotEng   =   -682721.7440 KinEng   =    580469.3078 Temp     =       299.7811 
PotEng   =  -1263191.0518 E_bond   =     69985.4373 E_angle  =    300373.3069 
E_dihed  =    142418.9881 E_impro  =      6013.8742 E_vdwl   =    -55174.5231 
E_coul   =   5676952.2352 E_long   =  -7403760.3705 Press    =       -53.9148 
Volume   =   8327621.3639 
---------------- Step     8350 ----- CPU =   3892.1500 (sec) ----------------
TotEng   =   -683100.9544 KinEng   =    581631.2335 Temp     =       300.3812 
PotEng   =  -1264732.1879 E_bond   =     69939.5243 E_angle  =    299390.3459 
E_dihed  =    142320.6527 E_impro  =      6024.3106 E_vdwl   =    -54218.2017 
E_coul   =   5675683.2262 E_long   =  -7403872.0458 Press    =        34.6499 
Volume   =   8325930.5428 
---------------- Step     8400 ----- CPU =   3915.3487 (sec) ----------------
TotEng   =   -683727.7007 KinEng   =    581452.6471 Temp     =       300.2890 
PotEng   =  -1265180.3478 E_bond   =     70059.3523 E_angle  =    299389.4878 
E_dihed  =    142346.9714 E_impro  =      6120.7188 E_vdwl   =    -54291.9688 
E_coul   =   5675006.7841 E_long   =  -7403811.6935 Press    =        35.2830 
Volume   =   8324703.0804 
---------------- Step     8450 ----- CPU =   3938.5520 (sec) ----------------
TotEng   =   -684484.5198 KinEng   =    580623.6915 Temp     =       299.8609 
PotEng   =  -1265108.2112 E_bond   =     70220.6776 E_angle  =    299517.9390 
E_dihed  =    142338.0736 E_impro  =      6057.8168 E_vdwl   =    -54562.4046 
E_coul   =   5675149.3922 E_long   =  -7403829.7059 Press    =       -19.8538 
Volume   =   8324214.2965 
---------------- Step     8500 ----- CPU =   3962.1471 (sec) ----------------
TotEng   =   -684814.5441 KinEng   =    580811.0100 Temp     =       299.9576 
PotEng   =  -1265625.5541 E_bond   =     69923.7384 E_angle  =    299968.8664 
E_dihed  =    141969.5792 E_impro  =      5992.8279 E_vdwl   =    -54208.4965 
E_coul   =   5674479.2682 E_long   =  -7403751.3377 Press    =         1.9392 
Volume   =   8324234.2854 
---------------- Step     8550 ----- CPU =   3985.3152 (sec) ----------------
TotEng   =   -684834.8998 KinEng   =    580231.6241 Temp     =       299.6584 
PotEng   =  -1265066.5239 E_bond   =     70084.7920 E_angle  =    299409.2213 
E_dihed  =    141937.3576 E_impro  =      6049.2148 E_vdwl   =    -55514.1284 
E_coul   =   5676794.3085 E_long   =  -7403827.2898 Press    =       -33.2026 
Volume   =   8324546.7405 
---------------- Step     8600 ----- CPU =   4008.9710 (sec) ----------------
TotEng   =   -684066.4487 KinEng   =    580282.8655 Temp     =       299.6848 
PotEng   =  -1264349.3142 E_bond   =     70004.9101 E_angle  =    299497.5694 
E_dihed  =    142019.2939 E_impro  =      6015.8346 E_vdwl   =    -55679.0014 
E_coul   =   5677549.4595 E_long   =  -7403757.3804 Press    =        -2.4273 
Volume   =   8324625.8542 
---------------- Step     8650 ----- CPU =   4032.1312 (sec) ----------------
TotEng   =   -682376.7502 KinEng   =    580734.0293 Temp     =       299.9178 
PotEng   =  -1263110.7795 E_bond   =     69784.6198 E_angle  =    300901.3687 
E_dihed  =    142363.4775 E_impro  =      6068.0804 E_vdwl   =    -54473.6389 
E_coul   =   5676003.3563 E_long   =  -7403758.0432 Press    =         3.9279 
Volume   =   8325473.6228 
---------------- Step     8700 ----- CPU =   4055.3047 (sec) ----------------
TotEng   =   -681359.7510 KinEng   =    581617.1579 Temp     =       300.3739 
PotEng   =  -1262976.9089 E_bond   =     69880.8367 E_angle  =    300809.0409 
E_dihed  =    142494.8431 E_impro  =      5966.5223 E_vdwl   =    -55076.2262 
E_coul   =   5676667.8815 E_long   =  -7403719.8072 Press    =       -28.9082 
Volume   =   8327113.4406 
---------------- Step     8750 ----- CPU =   4078.9786 (sec) ----------------
TotEng   =   -681651.0785 KinEng   =    581862.1715 Temp     =       300.5005 
PotEng   =  -1263513.2500 E_bond   =     69896.6377 E_angle  =    299619.1305 
E_dihed  =    142461.4573 E_impro  =      6073.3616 E_vdwl   =    -55509.3799 
E_coul   =   5677775.0732 E_long   =  -7403829.5305 Press    =       -49.1997 
Volume   =   8328537.2965 
---------------- Step     8800 ----- CPU =   4102.1619 (sec) ----------------
TotEng   =   -682981.4565 KinEng   =    580680.5222 Temp     =       299.8902 
PotEng   =  -1263661.9787 E_bond   =     69831.6134 E_angle  =    299740.4995 
E_dihed  =    142342.1756 E_impro  =      6178.4236 E_vdwl   =    -55701.8416 
E_coul   =   5677681.1520 E_long   =  -7403734.0012 Press    =       -59.7085 
Volume   =   8329612.9521 
---------------- Step     8850 ----- CPU =   4125.3406 (sec) ----------------
TotEng   =   -684193.4695 KinEng   =    580795.1293 Temp     =       299.9494 
PotEng   =  -1264988.5988 E_bond   =     69728.2660 E_angle  =    299499.9848 
E_dihed  =    142138.1632 E_impro  =      6053.8244 E_vdwl   =    -55839.8924 
E_coul   =   5677232.3019 E_long   =  -7403801.2468 Press    =        12.5545 
Volume   =   8330459.8568 
---------------- Step     8900 ----- CPU =   4148.9400 (sec) ----------------
TotEng   =   -684027.3328 KinEng   =    579963.1126 Temp     =       299.5197 
PotEng   =  -1263990.4455 E_bond   =     69970.4834 E_angle  =    299880.9181 
E_dihed  =    142114.8053 E_impro  =      6069.7372 E_vdwl   =    -56318.0482 
E_coul   =   5678150.0150 E_long   =  -7403858.3563 Press    =       -57.9402 
Volume   =   8330663.0156 
---------------- Step     8950 ----- CPU =   4172.1122 (sec) ----------------
TotEng   =   -682611.0705 KinEng   =    581427.6954 Temp     =       300.2761 
PotEng   =  -1264038.7659 E_bond   =     69521.9401 E_angle  =    300247.2222 
E_dihed  =    141994.1441 E_impro  =      6050.6987 E_vdwl   =    -55805.6094 
E_coul   =   5677745.7639 E_long   =  -7403792.9255 Press    =        -6.2265 
Volume   =   8330027.9343 
---------------- Step     9000 ----- CPU =   4195.2754 (sec) ----------------
TotEng   =   -681728.3798 KinEng   =    581809.1681 Temp     =       300.4731 
PotEng   =  -1263537.5479 E_bond   =     69989.8605 E_angle  =    300431.3115 
E_dihed  =    142505.3227 E_impro  =      6135.0841 E_vdwl   =    -55493.9984 
E_coul   =   5676723.8759 E_long   =  -7403829.0043 Press    =       -61.1135 
Volume   =   8329097.8671 
---------------- Step     9050 ----- CPU =   4218.4579 (sec) ----------------
TotEng   =   -682783.7587 KinEng   =    581235.5921 Temp     =       300.1769 
PotEng   =  -1264019.3509 E_bond   =     70110.8102 E_angle  =    300533.8818 
E_dihed  =    142105.3313 E_impro  =      6109.6942 E_vdwl   =    -55890.3839 
E_coul   =   5676764.8391 E_long   =  -7403753.5235 Press    =       -39.2863 
Volume   =   8327641.6919 
---------------- Step     9100 ----- CPU =   4242.1122 (sec) ----------------
TotEng   =   -684794.0498 KinEng   =    580135.2784 Temp     =       299.6086 
PotEng   =  -1264929.3282 E_bond   =     70386.7437 E_angle  =    299533.6651 
E_dihed  =    142339.8044 E_impro  =      6036.6663 E_vdwl   =    -56432.6937 
E_coul   =   5676990.3560 E_long   =  -7403783.8700 Press    =      -152.8591 
Volume   =   8325554.8158 
---------------- Step     9150 ----- CPU =   4265.3379 (sec) ----------------
TotEng   =   -685097.4070 KinEng   =    580151.5262 Temp     =       299.6170 
PotEng   =  -1265248.9332 E_bond   =     69860.4784 E_angle  =    299563.1356 
E_dihed  =    142310.2173 E_impro  =      6088.7952 E_vdwl   =    -54709.6235 
E_coul   =   5675472.4170 E_long   =  -7403834.3531 Press    =         8.8452 
Volume   =   8323378.4195 
---------------- Step     9200 ----- CPU =   4288.9573 (sec) ----------------
TotEng   =   -684180.5855 KinEng   =    580669.8438 Temp     =       299.8847 
PotEng   =  -1264850.4293 E_bond   =     69575.0669 E_angle  =    300137.0244 
E_dihed  =    142403.4392 E_impro  =      6078.1322 E_vdwl   =    -55157.6060 
E_coul   =   5675992.2580 E_long   =  -7403878.7441 Press    =        -8.7970 
Volume   =   8322320.1377 
---------------- Step     9250 ----- CPU =   4312.1503 (sec) ----------------
TotEng   =   -683058.8062 KinEng   =    581307.0824 Temp     =       300.2138 
PotEng   =  -1264365.8886 E_bond   =     69799.1964 E_angle  =    300020.6059 
E_dihed  =    142039.9679 E_impro  =      6076.8374 E_vdwl   =    -55031.2971 
E_coul   =   5676528.5254 E_long   =  -7403799.7245 Press    =        57.3717 
Volume   =   8321531.8227 
---------------- Step     9300 ----- CPU =   4335.3855 (sec) ----------------
TotEng   =   -682491.4970 KinEng   =    580950.4345 Temp     =       300.0296 
PotEng   =  -1263441.9316 E_bond   =     69854.2701 E_angle  =    300158.4600 
E_dihed  =    142222.2772 E_impro  =      6003.8385 E_vdwl   =    -54153.8150 
E_coul   =   5676287.2383 E_long   =  -7403814.2006 Press    =        22.2756 
Volume   =   8320767.3964 
---------------- Step     9350 ----- CPU =   4359.0173 (sec) ----------------
TotEng   =   -682829.1179 KinEng   =    580884.1162 Temp     =       299.9954 
PotEng   =  -1263713.2341 E_bond   =     70284.4164 E_angle  =    300452.2075 
E_dihed  =    142248.3244 E_impro  =      6097.0726 E_vdwl   =    -55658.2591 
E_coul   =   5676671.2485 E_long   =  -7403808.2444 Press    =       -73.9758 
Volume   =   8320579.0486 
---------------- Step     9400 ----- CPU =   4382.1968 (sec) ----------------
TotEng   =   -684085.9243 KinEng   =    580470.7896 Temp     =       299.7819 
PotEng   =  -1264556.7138 E_bond   =     69944.7187 E_angle  =    299780.4219 
E_dihed  =    141913.3596 E_impro  =      6088.4043 E_vdwl   =    -55265.1667 
E_coul   =   5676791.2457 E_long   =  -7403809.6973 Press    =        45.4365 
Volume   =   8320505.4992 
---------------- Step     9450 ----- CPU =   4405.8834 (sec) ----------------
TotEng   =   -684595.6094 KinEng   =    580579.8282 Temp     =       299.8382 
PotEng   =  -1265175.4377 E_bond   =     69681.8913 E_angle  =    300028.1722 
E_dihed  =    142351.4059 E_impro  =      6067.2564 E_vdwl   =    -56203.7566 
E_coul   =   5676661.3824 E_long   =  -7403761.7893 Press    =       -61.5707 
Volume   =   8320480.7068 
---------------- Step     9500 ----- CPU =   4429.0798 (sec) ----------------
TotEng   =   -684330.9292 KinEng   =    581081.5139 Temp     =       300.0973 
PotEng   =  -1265412.4431 E_bond   =     69910.5619 E_angle  =    299223.7453 
E_dihed  =    142397.3216 E_impro  =      6082.1659 E_vdwl   =    -54212.5605 
E_coul   =   5675027.2715 E_long   =  -7403840.9488 Press    =       -15.0265 
Volume   =   8319701.1747 
---------------- Step     9550 ----- CPU =   4452.2820 (sec) ----------------
TotEng   =   -683696.3123 KinEng   =    581005.9327 Temp     =       300.0583 
PotEng   =  -1264702.2450 E_bond   =     70032.3167 E_angle  =    300275.3789 
E_dihed  =    142192.1405 E_impro  =      6112.0310 E_vdwl   =    -54091.9961 
E_coul   =   5674633.5163 E_long   =  -7403855.6322 Press    =        98.4928 
Volume   =   8319179.1417 
---------------- Step     9600 ----- CPU =   4475.9564 (sec) ----------------
TotEng   =   -683132.2737 KinEng   =    581794.8210 Temp     =       300.4657 
PotEng   =  -1264927.0947 E_bond   =     70256.9853 E_angle  =    300020.4321 
E_dihed  =    142101.2935 E_impro  =      6023.2273 E_vdwl   =    -55431.6461 
E_coul   =   5675920.1107 E_long   =  -7403817.4975 Press    =       -41.7735 
Volume   =   8320183.9677 
---------------- Step     9650 ----- CPU =   4499.1636 (sec) ----------------
TotEng   =   -682970.4529 KinEng   =    580785.2759 Temp     =       299.9443 
PotEng   =  -1263755.7288 E_bond   =     70157.4138 E_angle  =    301067.8748 
E_dihed  =    142116.4846 E_impro  =      6050.6437 E_vdwl   =    -55302.4118 
E_coul   =   5675904.2466 E_long   =  -7403749.9804 Press    =       -26.4673 
Volume   =   8321565.6039 
---------------- Step     9700 ----- CPU =   4522.8101 (sec) ----------------
TotEng   =   -683713.2095 KinEng   =    581502.1356 Temp     =       300.3145 
PotEng   =  -1265215.3451 E_bond   =     69960.8392 E_angle  =    299826.1627 
E_dihed  =    142240.4300 E_impro  =      6069.0080 E_vdwl   =    -55359.2568 
E_coul   =   5675864.1449 E_long   =  -7403816.6731 Press    =        33.7848 
Volume   =   8322558.9971 
---------------- Step     9750 ----- CPU =   4545.9847 (sec) ----------------
TotEng   =   -684810.2371 KinEng   =    579679.3723 Temp     =       299.3732 
PotEng   =  -1264489.6095 E_bond   =     70193.3701 E_angle  =    300068.5638 
E_dihed  =    142357.3948 E_impro  =      6144.7350 E_vdwl   =    -56144.8954 
E_coul   =   5676668.6248 E_long   =  -7403777.4025 Press    =      -101.9811 
Volume   =   8322737.3059 
---------------- Step     9800 ----- CPU =   4569.1384 (sec) ----------------
TotEng   =   -685195.7751 KinEng   =    580795.5948 Temp     =       299.9496 
PotEng   =  -1265991.3699 E_bond   =     69817.1774 E_angle  =    299904.1070 
E_dihed  =    141835.7630 E_impro  =      6075.5795 E_vdwl   =    -55708.3680 
E_coul   =   5675904.3990 E_long   =  -7403820.0278 Press    =       -23.4450 
Volume   =   8322432.1206 
---------------- Step     9850 ----- CPU =   4592.7924 (sec) ----------------
TotEng   =   -684576.2994 KinEng   =    581282.2025 Temp     =       300.2009 
PotEng   =  -1265858.5019 E_bond   =     70024.0961 E_angle  =    299565.4762 
E_dihed  =    141949.6079 E_impro  =      6054.1948 E_vdwl   =    -56265.7079 
E_coul   =   5676654.3018 E_long   =  -7403840.4709 Press    =       -85.5846 
Volume   =   8322290.1071 
---------------- Step     9900 ----- CPU =   4615.9686 (sec) ----------------
TotEng   =   -683236.2979 KinEng   =    580869.5572 Temp     =       299.9878 
PotEng   =  -1264105.8551 E_bond   =     70190.8328 E_angle  =    300552.7801 
E_dihed  =    142413.9156 E_impro  =      6028.4404 E_vdwl   =    -55529.2994 
E_coul   =   5676074.6591 E_long   =  -7403837.1837 Press    =       -38.8342 
Volume   =   8322096.8387 
---------------- Step     9950 ----- CPU =   4639.1245 (sec) ----------------
TotEng   =   -682630.1229 KinEng   =    581737.6476 Temp     =       300.4362 
PotEng   =  -1264367.7705 E_bond   =     69988.2092 E_angle  =    300162.9186 
E_dihed  =    142242.9429 E_impro  =      6103.2544 E_vdwl   =    -55106.9810 
E_coul   =   5676121.9383 E_long   =  -7403880.0530 Press    =        18.7739 
Volume   =   8320774.5189 
---------------- Step    10000 ----- CPU =   4662.7965 (sec) ----------------
TotEng   =   -683307.2476 KinEng   =    580745.1836 Temp     =       299.9236 
PotEng   =  -1264052.4312 E_bond   =     70476.6087 E_angle  =    300104.2972 
E_dihed  =    142208.8481 E_impro  =      6035.3302 E_vdwl   =    -56195.6022 
E_coul   =   5677175.3937 E_long   =  -7403857.3070 Press    =       -67.2151 
Volume   =   8319510.0141 
Loop time of 4662.8 on 4 procs for 10000 steps with 864000 atoms

Performance: 0.371 ns/day, 64.761 hours/ns, 2.145 timesteps/s
99.8% CPU use with 4 MPI tasks x 1 OpenMP threads

MPI task timing breakdown:
Section |  min time  |  avg time  |  max time  |%varavg| %total
---------------------------------------------------------------
Pair    | 2947.8     | 2956.4     | 2974       |  19.2 | 63.40
Bond    | 178.91     | 181.69     | 184.46     |  14.6 |  3.90
Kspace  | 462.94     | 480.7      | 489.62     |  47.5 | 10.31
Neigh   | 429.42     | 429.68     | 429.94     |   1.2 |  9.22
Comm    | 168.53     | 169.58     | 170.58     |   7.5 |  3.64
Output  | 0.074571   | 0.077164   | 0.078353   |   0.5 |  0.00
Modify  | 430.69     | 432.31     | 433.85     |   7.4 |  9.27
Other   |            | 12.32      |            |       |  0.26

Nlocal:         216000 ave      216232 max      215849 min
Histogram: 1 1 0 0 1 0 0 0 0 1
Nghost:         147530 ave      147899 max      147069 min
Histogram: 1 0 0 0 0 1 1 0 0 1
Neighs:     8.1189e+07 ave 8.14179e+07 max 8.10308e+07 min
Histogram: 1 0 1 1 0 0 0 0 0 1

Total # of neighbors = 3.247559e+08
Ave neighs/atom = 375.87489
Ave special neighs/atom = 7.431875
Neighbor list builds = 1277
Dangerous builds = 0
Total wall time: 1:17:44
Intel(R) VTune(TM) Profiler 2022.2.0 collection completed successfully. Use the "aps --report /home/ubuntu/lammps/bench/aps_result_20220704" command to generate textual and HTML reports for the profiling session.
