LAMMPS (7 Jan 2022)
  using 1 OpenMP thread(s) per MPI task
Reading data file ...
  orthogonal box = (-27.5 -38.5 -36.3646) to (27.5 38.5 36.3615)
  1 by 2 by 1 MPI processor grid
  reading atoms ...
  32000 atoms
  reading velocities ...
  32000 velocities
  scanning bonds ...
  4 = max bonds/atom
  scanning angles ...
  8 = max angles/atom
  scanning dihedrals ...
  18 = max dihedrals/atom
  scanning impropers ...
  2 = max impropers/atom
  reading bonds ...
  27723 bonds
  reading angles ...
  40467 angles
  reading dihedrals ...
  56829 dihedrals
  reading impropers ...
  1034 impropers
Finding 1-2 1-3 1-4 neighbors ...
  special bond factors lj:    0        0        0       
  special bond factors coul:  0        0        0       
     4 = max # of 1-2 neighbors
    12 = max # of 1-3 neighbors
    24 = max # of 1-4 neighbors
    26 = max # of special neighbors
  special bonds CPU = 0.013 seconds
  read_data CPU = 0.245 seconds
Replicating atoms ...
  orthogonal box = (-27.5 -38.5 -36.3646) to (137.5 192.5 181.8137)
  1 by 2 by 1 MPI processor grid
  864000 atoms
  748521 bonds
  1092609 angles
  1534383 dihedrals
  27918 impropers
Finding 1-2 1-3 1-4 neighbors ...
  special bond factors lj:    0        0        0       
  special bond factors coul:  0        0        0       
     4 = max # of 1-2 neighbors
    12 = max # of 1-3 neighbors
    24 = max # of 1-4 neighbors
    26 = max # of special neighbors
  special bonds CPU = 0.318 seconds
  replicate CPU = 0.587 seconds
Finding SHAKE clusters ...
   43659 = # of size 2 clusters
   98091 = # of size 3 clusters
   20169 = # of size 4 clusters
  114291 = # of frozen angles
  find clusters CPU = 0.148 seconds
PPPM initialization ...
  using 12-bit tables for long-range coulomb (../kspace.cpp:340)
  G vector (1/distance) = 0.36019894
  grid = 200 256 250
  stencil order = 7
  estimated absolute RMS force accuracy = 4.1504394e-05
  estimated relative force accuracy = 1.2498925e-07
  using single precision MKL FFT
  3d grid and FFT values/proc = 7415947 6400000
----------------------------------------------------------
Using INTEL Package without Coprocessor.
Compiler: Intel Classic C++ 20.21.5 / Intel(R) C++ g++ 9.3 mode
SIMD compiler directives: Enabled
Precision: mixed
----------------------------------------------------------
  generated 2278 of 2278 mixed pair_coeff terms from arithmetic mixing rule
Neighbor list info ...
  update every 1 steps, delay 5 steps, check yes
  max neighbors/atom: 2000, page size: 100000
  master list distance cutoff = 12
  ghost atom cutoff = 12
  binsize = 6, bins = 28 39 37
  1 neighbor lists, perpetual/occasional/extra = 1 0 0
  (1) pair lj/charmm/coul/long/intel, perpetual
      attributes: half, newton on, intel
      pair build: half/bin/newton/intel
      stencil: half/bin/3d
      bin: intel
Setting up Verlet run ...
  Unit style    : real
  Current step  : 0
  Time step     : 2
Per MPI rank memory allocation (min/avg/max) = 5028 | 5035 | 5042 Mbytes
---------------- Step        0 ----- CPU =      0.0000 (sec) ----------------
TotEng   =   -684695.2774 KinEng   =    579010.4447 Temp     =       299.0277 
PotEng   =  -1263705.7221 E_bond   =     68525.6859 E_angle  =    294877.1223 
E_dihed  =    140718.2350 E_impro  =      5764.8965 E_vdwl   =    -62312.3838 
E_coul   =   8829669.0941 E_long   = -10540948.3720 Press    =      -152.9819 
Volume   =   8315865.9045 
---------------- Step       50 ----- CPU =    101.1892 (sec) ----------------
TotEng   =   -683988.5048 KinEng   =    580535.3758 Temp     =       299.8153 
PotEng   =  -1264523.8806 E_bond   =     66734.9779 E_angle  =    292593.1572 
E_dihed  =    141466.0366 E_impro  =      6132.8633 E_vdwl   =    -53797.4375 
E_coul   =   8823860.6086 E_long   = -10541514.0866 Press    =       234.7589 
Volume   =   8316839.8914 
---------------- Step      100 ----- CPU =    203.3389 (sec) ----------------
TotEng   =   -682766.6304 KinEng   =    582982.4710 Temp     =       301.0790 
PotEng   =  -1265749.1014 E_bond   =     69333.0974 E_angle  =    291104.9070 
E_dihed  =    140361.5042 E_impro  =      5853.1430 E_vdwl   =    -51307.2096 
E_coul   =   8820275.2383 E_long   = -10541369.7818 Press    =        12.2533 
Volume   =   8319577.6874 
Loop time of 203.339 on 2 procs for 100 steps with 864000 atoms

Performance: 0.085 ns/day, 282.415 hours/ns, 0.492 timesteps/s
98.9% CPU use with 2 MPI tasks x 1 OpenMP threads

MPI task timing breakdown:
Section |  min time  |  avg time  |  max time  |%varavg| %total
---------------------------------------------------------------
Pair    | 58.894     | 59.064     | 59.234     |   2.2 | 29.05
Bond    | 3.505      | 3.5496     | 3.5942     |   2.4 |  1.75
Kspace  | 81.315     | 81.529     | 81.743     |   2.4 | 40.09
Neigh   | 6.9863     | 6.9866     | 6.9869     |   0.0 |  3.44
Comm    | 2.7429     | 2.7746     | 2.8063     |   1.9 |  1.36
Output  | 0.0013948  | 0.0014379  | 0.0014811  |   0.1 |  0.00
Modify  | 49.115     | 49.171     | 49.228     |   0.8 | 24.18
Other   |            | 0.2629     |            |       |  0.13

Nlocal:         432000 ave      432927 max      431073 min
Histogram: 1 0 0 0 0 0 0 0 0 1
Nghost:         230732 ave      231301 max      230162 min
Histogram: 1 0 0 0 0 0 0 0 0 1
Neighs:    1.62379e+08 ave 1.62959e+08 max 1.61799e+08 min
Histogram: 1 0 0 0 0 0 0 0 0 1

Total # of neighbors = 3.2475858e+08
Ave neighs/atom = 375.87799
Ave special neighs/atom = 7.431875
Neighbor list builds = 11
Dangerous builds = 0
Total wall time: 0:03:28
Intel(R) VTune(TM) Profiler 2022.2.0 collection completed successfully. Use the "aps --report /home/ubuntu/lammps/bench/aps_result_20220530" command to generate textual and HTML reports for the profiling session.
