LAMMPS (7 Jan 2022)
  using 1 OpenMP thread(s) per MPI task
Reading data file ...
  orthogonal box = (-27.5 -38.5 -36.3646) to (27.5 38.5 36.3615)
  2 by 4 by 2 MPI processor grid
  reading atoms ...
  32000 atoms
  reading velocities ...
  32000 velocities
  scanning bonds ...
  4 = max bonds/atom
  scanning angles ...
  8 = max angles/atom
  scanning dihedrals ...
  18 = max dihedrals/atom
  scanning impropers ...
  2 = max impropers/atom
  reading bonds ...
  27723 bonds
  reading angles ...
  40467 angles
  reading dihedrals ...
  56829 dihedrals
  reading impropers ...
  1034 impropers
Finding 1-2 1-3 1-4 neighbors ...
  special bond factors lj:    0        0        0       
  special bond factors coul:  0        0        0       
     4 = max # of 1-2 neighbors
    12 = max # of 1-3 neighbors
    24 = max # of 1-4 neighbors
    26 = max # of special neighbors
  special bonds CPU = 0.016 seconds
  read_data CPU = 0.436 seconds
Replicating atoms ...
  orthogonal box = (-27.5 -38.5 -36.3646) to (82.5 115.5 109.0876)
  2 by 4 by 2 MPI processor grid
  256000 atoms
  221784 bonds
  323736 angles
  454632 dihedrals
  8272 impropers
Finding 1-2 1-3 1-4 neighbors ...
  special bond factors lj:    0        0        0       
  special bond factors coul:  0        0        0       
     4 = max # of 1-2 neighbors
    12 = max # of 1-3 neighbors
    24 = max # of 1-4 neighbors
    26 = max # of special neighbors
  special bonds CPU = 0.029 seconds
  replicate CPU = 0.068 seconds
Finding SHAKE clusters ...
   12936 = # of size 2 clusters
   29064 = # of size 3 clusters
    5976 = # of size 4 clusters
   33864 = # of frozen angles
  find clusters CPU = 0.022 seconds
Ewald initialization ...
  using 12-bit tables for long-range coulomb (../kspace.cpp:340)
  G vector (1/distance) = 0.24317651
  estimated absolute RMS force accuracy = 0.040677215
  estimated relative force accuracy = 0.00012249823
  KSpace vectors: actual max1d max3d = 41160 29 102689
                  kxmax kymax kzmax  = 22 29 28
----------------------------------------------------------
Using INTEL Package without Coprocessor.
Compiler: Intel Classic C++ 20.21.5 / Intel(R) C++ g++ 9.3 mode
SIMD compiler directives: Enabled
Precision: mixed
----------------------------------------------------------
  generated 2278 of 2278 mixed pair_coeff terms from arithmetic mixing rule
Neighbor list info ...
  update every 1 steps, delay 5 steps, check yes
  max neighbors/atom: 2000, page size: 100000
  master list distance cutoff = 12
  ghost atom cutoff = 12
  binsize = 6, bins = 19 26 25
  1 neighbor lists, perpetual/occasional/extra = 1 0 0
  (1) pair lj/charmm/coul/long/intel, perpetual
      attributes: half, newton on, intel
      pair build: half/bin/newton/intel
      stencil: half/bin/3d
      bin: intel
Setting up Verlet run ...
  Unit style    : real
  Current step  : 0
  Time step     : 2
Per MPI rank memory allocation (min/avg/max) = 399 | 399.7 | 400.5 Mbytes
---------------- Step        0 ----- CPU =      0.0000 (sec) ----------------
TotEng   =   -202873.9534 KinEng   =    171558.6503 Temp     =       299.0288 
PotEng   =   -374432.6037 E_bond   =     20303.9370 E_angle  =     87370.9630 
E_dihed  =     41694.2900 E_impro  =      1708.1116 E_vdwl   =    -18462.9090 
E_coul   =   1607174.8522 E_long   =  -2114221.8484 Press    =      -144.5084 
Volume   =   2463960.2680 
---------------- Step       50 ----- CPU =    274.6188 (sec) ----------------
TotEng   =   -202656.2944 KinEng   =    172009.0179 Temp     =       299.8138 
PotEng   =   -374665.3122 E_bond   =     19774.4857 E_angle  =     86693.1861 
E_dihed  =     41917.8272 E_impro  =      1816.8502 E_vdwl   =    -15947.5473 
E_coul   =   1605350.2844 E_long   =  -2114270.3986 Press    =       241.8020 
Volume   =   2464264.1296 
---------------- Step      100 ----- CPU =    549.8132 (sec) ----------------
TotEng   =   -202342.7851 KinEng   =    172732.0383 Temp     =       301.0740 
PotEng   =   -375074.8234 E_bond   =     20546.2271 E_angle  =     86258.6465 
E_dihed  =     41589.4585 E_impro  =      1733.9212 E_vdwl   =    -15194.2224 
E_coul   =   1604222.5896 E_long   =  -2114231.4439 Press    =        13.0361 
Volume   =   2465113.7414 
Loop time of 549.813 on 16 procs for 100 steps with 256000 atoms

Performance: 0.031 ns/day, 763.629 hours/ns, 0.182 timesteps/s
82.9% CPU use with 16 MPI tasks x 1 OpenMP threads

MPI task timing breakdown:
Section |  min time  |  avg time  |  max time  |%varavg| %total
---------------------------------------------------------------
Pair    | 2.1979     | 2.3728     | 4.4922     |  35.6 |  0.43
Bond    | 0.12717    | 0.13966    | 0.24717    |   7.5 |  0.03
Kspace  | 297.29     | 317.57     | 543.6      | 328.0 | 57.76
Neigh   | 0.50905    | 0.53704    | 0.54128    |   1.4 |  0.10
Comm    | 0.28694    | 168.84     | 247.31     | 839.0 | 30.71
Output  | 0.00012421 | 0.00012979 | 0.00018268 |   0.0 |  0.00
Modify  | 0.52558    | 60.323     | 239.69     |1333.3 | 10.97
Other   |            | 0.03382    |            |       |  0.01

Nlocal:          16000 ave       16102 max       15898 min
Histogram: 8 0 0 0 0 0 0 0 0 8
Nghost:        33480.5 ave       33489 max       33472 min
Histogram: 8 0 0 0 0 0 0 0 0 8
Neighs:    6.01393e+06 ave 6.09945e+06 max 5.92931e+06 min
Histogram: 4 4 0 0 0 0 0 0 4 4

Total # of neighbors = 96222897
Ave neighs/atom = 375.87069
Ave special neighs/atom = 7.431875
Neighbor list builds = 11
Dangerous builds = 0
Total wall time: 0:09:16
Intel(R) VTune(TM) Profiler 2022.2.0 collection completed successfully. Use the "aps --report /home/ubuntu/lammps/bench/aps_result_20220530" command to generate textual and HTML reports for the profiling session.
