LAMMPS (7 Jan 2022)
  using 1 OpenMP thread(s) per MPI task
Reading data file ...
  orthogonal box = (-27.5 -38.5 -36.3646) to (27.5 38.5 36.3615)
  2 by 2 by 2 MPI processor grid
  reading atoms ...
  32000 atoms
  reading velocities ...
  32000 velocities
  scanning bonds ...
  4 = max bonds/atom
  scanning angles ...
  8 = max angles/atom
  scanning dihedrals ...
  18 = max dihedrals/atom
  scanning impropers ...
  2 = max impropers/atom
  reading bonds ...
  27723 bonds
  reading angles ...
  40467 angles
  reading dihedrals ...
  56829 dihedrals
  reading impropers ...
  1034 impropers
Finding 1-2 1-3 1-4 neighbors ...
  special bond factors lj:    0        0        0       
  special bond factors coul:  0        0        0       
     4 = max # of 1-2 neighbors
    12 = max # of 1-3 neighbors
    24 = max # of 1-4 neighbors
    26 = max # of special neighbors
  special bonds CPU = 0.018 seconds
  read_data CPU = 0.431 seconds
Replicating atoms ...
  orthogonal box = (-27.5 -38.5 -36.3646) to (192.5 269.5 254.5398)
  2 by 2 by 2 MPI processor grid
  2048000 atoms
  1774272 bonds
  2589888 angles
  3637056 dihedrals
  66176 impropers
Finding 1-2 1-3 1-4 neighbors ...
  special bond factors lj:    0        0        0       
  special bond factors coul:  0        0        0       
     4 = max # of 1-2 neighbors
    12 = max # of 1-3 neighbors
    24 = max # of 1-4 neighbors
    26 = max # of special neighbors
  special bonds CPU = 0.329 seconds
  replicate CPU = 0.581 seconds
Finding SHAKE clusters ...
  103488 = # of size 2 clusters
  232512 = # of size 3 clusters
   47808 = # of size 4 clusters
  270912 = # of frozen angles
  find clusters CPU = 0.173 seconds
PPPM initialization ...
  using 12-bit tables for long-range coulomb (../kspace.cpp:340)
  G vector (1/distance) = 0.25045586
  grid = 90 120 120
  stencil order = 7
  estimated absolute RMS force accuracy = 0.032785255
  estimated relative force accuracy = 9.8731821e-05
  using single precision MKL FFT
  3d grid and FFT values/proc = 233428 162000
----------------------------------------------------------
Using INTEL Package without Coprocessor.
Compiler: Intel Classic C++ 20.21.5 / Intel(R) C++ g++ 9.3 mode
SIMD compiler directives: Enabled
Precision: mixed
----------------------------------------------------------
  generated 2278 of 2278 mixed pair_coeff terms from arithmetic mixing rule
Neighbor list info ...
  update every 1 steps, delay 5 steps, check yes
  max neighbors/atom: 2000, page size: 100000
  master list distance cutoff = 12
  ghost atom cutoff = 12
  binsize = 6, bins = 37 52 49
  1 neighbor lists, perpetual/occasional/extra = 1 0 0
  (1) pair lj/charmm/coul/long/intel, perpetual
      attributes: half, newton on, intel
      pair build: half/bin/newton/intel
      stencil: half/bin/3d
      bin: intel
Setting up Verlet run ...
  Unit style    : real
  Current step  : 0
  Time step     : 2
Per MPI rank memory allocation (min/avg/max) = 2685 | 2685 | 2685 Mbytes
---------------- Step        0 ----- CPU =      0.0000 (sec) ----------------
TotEng   =  -1622915.6814 KinEng   =   1372469.2022 Temp     =       299.0274 
PotEng   =  -2995384.8836 E_bond   =    162431.7410 E_angle  =    698967.9457 
E_dihed  =    333554.2808 E_impro  =     13664.8915 E_vdwl   =   -147703.2770 
E_coul   =  13362001.3151 E_long   = -17418301.7807 Press    =      -148.3958 
Volume   =  19711682.1440 
---------------- Step       50 ----- CPU =     53.0324 (sec) ----------------
TotEng   =  -1621183.5584 KinEng   =   1376067.8242 Temp     =       299.8115 
PotEng   =  -2997251.3826 E_bond   =    158193.0241 E_angle  =    693548.5559 
E_dihed  =    335338.9263 E_impro  =     14535.9339 E_vdwl   =   -127558.7900 
E_coul   =  13347432.8660 E_long   = -17418741.8989 Press    =       238.9882 
Volume   =  19714046.0010 
---------------- Step      100 ----- CPU =    106.9165 (sec) ----------------
TotEng   =  -1618557.6617 KinEng   =   1381768.5807 Temp     =       301.0535 
PotEng   =  -3000326.2425 E_bond   =    164352.9742 E_angle  =    690067.4849 
E_dihed  =    332721.4577 E_impro  =     13872.8586 E_vdwl   =   -121547.6877 
E_coul   =  13338616.0458 E_long   = -17418409.3761 Press    =        13.8200 
Volume   =  19720671.9078 
Loop time of 106.917 on 8 procs for 100 steps with 2048000 atoms

Performance: 0.162 ns/day, 148.495 hours/ns, 0.935 timesteps/s
83.2% CPU use with 8 MPI tasks x 1 OpenMP threads

MPI task timing breakdown:
Section |  min time  |  avg time  |  max time  |%varavg| %total
---------------------------------------------------------------
Pair    | 34.986     | 39.487     | 69.938     | 183.2 | 36.93
Bond    | 2.181      | 2.4616     | 4.196      |  41.8 |  2.30
Kspace  | 10.882     | 43.276     | 48.062     | 186.1 | 40.48
Neigh   | 8.4283     | 8.5416     | 8.575      |   1.6 |  7.99
Comm    | 3.7461     | 4.1655     | 4.3287     |   8.4 |  3.90
Output  | 0.0011559  | 0.001237   | 0.0013295  |   0.2 |  0.00
Modify  | 7.7126     | 7.9793     | 9.3459     |  18.4 |  7.46
Other   |            | 1.005      |            |       |  0.94

Nlocal:         256000 ave      256003 max      255997 min
Histogram: 1 1 0 0 0 4 0 0 1 1
Nghost:         163361 ave      163364 max      163358 min
Histogram: 1 1 0 0 0 4 0 0 1 1
Neighs:    9.62243e+07 ave 9.63369e+07 max 9.61128e+07 min
Histogram: 4 0 0 0 0 0 0 0 0 4

Total # of neighbors = 7.6979423e+08
Ave neighs/atom = 375.87609
Ave special neighs/atom = 7.431875
Neighbor list builds = 11
Dangerous builds = 0
Total wall time: 0:01:51
Intel(R) VTune(TM) Profiler 2022.2.0 collection completed successfully. Use the "aps --report /home/ubuntu/lammps/bench/aps_result_20220526" command to generate textual and HTML reports for the profiling session.
