LAMMPS (7 Jan 2022)
  using 1 OpenMP thread(s) per MPI task
Reading data file ...
  orthogonal box = (-27.5 -38.5 -36.3646) to (27.5 38.5 36.3615)
  1 by 1 by 1 MPI processor grid
  reading atoms ...
  32000 atoms
  reading velocities ...
  32000 velocities
  scanning bonds ...
  4 = max bonds/atom
  scanning angles ...
  8 = max angles/atom
  scanning dihedrals ...
  18 = max dihedrals/atom
  scanning impropers ...
  2 = max impropers/atom
  reading bonds ...
  27723 bonds
  reading angles ...
  40467 angles
  reading dihedrals ...
  56829 dihedrals
  reading impropers ...
  1034 impropers
Finding 1-2 1-3 1-4 neighbors ...
  special bond factors lj:    0        0        0       
  special bond factors coul:  0        0        0       
     4 = max # of 1-2 neighbors
    12 = max # of 1-3 neighbors
    24 = max # of 1-4 neighbors
    26 = max # of special neighbors
  special bonds CPU = 0.017 seconds
  read_data CPU = 0.216 seconds
Replicating atoms ...
  orthogonal box = (-27.5 -38.5 -36.3646) to (82.5 115.5 109.0876)
  1 by 1 by 1 MPI processor grid
  256000 atoms
  221784 bonds
  323736 angles
  454632 dihedrals
  8272 impropers
Finding 1-2 1-3 1-4 neighbors ...
  special bond factors lj:    0        0        0       
  special bond factors coul:  0        0        0       
     4 = max # of 1-2 neighbors
    12 = max # of 1-3 neighbors
    24 = max # of 1-4 neighbors
    26 = max # of special neighbors
  special bonds CPU = 0.134 seconds
  replicate CPU = 0.222 seconds
Finding SHAKE clusters ...
   12936 = # of size 2 clusters
   29064 = # of size 3 clusters
    5976 = # of size 4 clusters
   33864 = # of frozen angles
  find clusters CPU = 0.057 seconds
PPPM initialization ...
  using 12-bit tables for long-range coulomb (../kspace.cpp:340)
  G vector (1/distance) = 0.25045586
  grid = 45 60 60
  stencil order = 7
  estimated absolute RMS force accuracy = 0.032785255
  estimated relative force accuracy = 9.8731821e-05
  using single precision MKL FFT
  3d grid and FFT values/proc = 233428 162000
----------------------------------------------------------
Using INTEL Package without Coprocessor.
Compiler: Intel Classic C++ 20.21.5 / Intel(R) C++ g++ 9.3 mode
SIMD compiler directives: Enabled
Precision: mixed
----------------------------------------------------------
  generated 2278 of 2278 mixed pair_coeff terms from arithmetic mixing rule
Neighbor list info ...
  update every 1 steps, delay 5 steps, check yes
  max neighbors/atom: 2000, page size: 100000
  master list distance cutoff = 12
  ghost atom cutoff = 12
  binsize = 6, bins = 19 26 25
  1 neighbor lists, perpetual/occasional/extra = 1 0 0
  (1) pair lj/charmm/coul/long/intel, perpetual
      attributes: half, newton on, intel
      pair build: half/bin/newton/intel
      stencil: half/bin/3d
      bin: intel
Setting up Verlet run ...
  Unit style    : real
  Current step  : 0
  Time step     : 2
Per MPI rank memory allocation (min/avg/max) = 2675 | 2675 | 2675 Mbytes
---------------- Step        0 ----- CPU =      0.0000 (sec) ----------------
TotEng   =   -202864.5379 KinEng   =    171558.6503 Temp     =       299.0288 
PotEng   =   -374423.1881 E_bond   =     20303.9370 E_angle  =     87370.9630 
E_dihed  =     41694.2900 E_impro  =      1708.1116 E_vdwl   =    -18462.9090 
E_coul   =   1670250.1021 E_long   =  -2177287.6828 Press    =      -148.4154 
Volume   =   2463960.2680 
---------------- Step       50 ----- CPU =     25.4472 (sec) ----------------
TotEng   =   -202648.8534 KinEng   =    172008.0360 Temp     =       299.8121 
PotEng   =   -374656.8895 E_bond   =     19774.0797 E_angle  =     86693.3773 
E_dihed  =     41917.3523 E_impro  =      1816.9727 E_vdwl   =    -15944.9402 
E_coul   =   1668429.0384 E_long   =  -2177342.7695 Press    =       238.9859 
Volume   =   2464255.7500 
---------------- Step      100 ----- CPU =     51.4563 (sec) ----------------
TotEng   =   -202321.9386 KinEng   =    172719.8953 Temp     =       301.0529 
PotEng   =   -375041.8339 E_bond   =     20544.1166 E_angle  =     86258.0353 
E_dihed  =     41590.1266 E_impro  =      1734.1361 E_vdwl   =    -15193.5659 
E_coul   =   1667326.4918 E_long   =  -2177301.1745 Press    =        13.7609 
Volume   =   2465083.9304 
---------------- Step      150 ----- CPU =     77.5566 (sec) ----------------
TotEng   =   -202065.3645 KinEng   =    172251.6750 Temp     =       300.2367 
PotEng   =   -374317.0395 E_bond   =     20454.1764 E_angle  =     86834.8830 
E_dihed  =     42116.8648 E_impro  =      1624.5457 E_vdwl   =    -16578.4078 
E_coul   =   1668456.5968 E_long   =  -2177225.6985 Press    =       245.5008 
Volume   =   2468149.4449 
---------------- Step      200 ----- CPU =    103.1979 (sec) ----------------
TotEng   =   -200638.1774 KinEng   =    172237.1023 Temp     =       300.2113 
PotEng   =   -372875.2797 E_bond   =     19915.7120 E_angle  =     88600.8050 
E_dihed  =     41769.2140 E_impro  =      1860.1746 E_vdwl   =    -17199.9488 
E_coul   =   1669423.2977 E_long   =  -2177244.5342 Press    =        44.9310 
Volume   =   2471990.9724 
---------------- Step      250 ----- CPU =    129.3600 (sec) ----------------
TotEng   =   -199651.8366 KinEng   =    172656.2682 Temp     =       300.9420 
PotEng   =   -372308.1049 E_bond   =     20335.1975 E_angle  =     88801.2145 
E_dihed  =     41953.0247 E_impro  =      1700.6954 E_vdwl   =    -17042.1915 
E_coul   =   1669314.6684 E_long   =  -2177370.7137 Press    =      -140.0384 
Volume   =   2475151.1603 
---------------- Step      300 ----- CPU =    155.5731 (sec) ----------------
TotEng   =   -200323.6667 KinEng   =    171614.3377 Temp     =       299.1259 
PotEng   =   -371938.0044 E_bond   =     20481.4234 E_angle  =     87358.9070 
E_dihed  =     41773.7199 E_impro  =      1785.0155 E_vdwl   =    -17928.0259 
E_coul   =   1671772.9222 E_long   =  -2177181.9666 Press    =      -415.7450 
Volume   =   2477561.8735 
---------------- Step      350 ----- CPU =    181.7704 (sec) ----------------
TotEng   =   -201563.3993 KinEng   =    172244.0695 Temp     =       300.2235 
PotEng   =   -373807.4687 E_bond   =     20582.0646 E_angle  =     87537.3977 
E_dihed  =     42038.9305 E_impro  =      1664.6852 E_vdwl   =    -17586.0304 
E_coul   =   1669165.1197 E_long   =  -2177209.6360 Press    =      -432.8890 
Volume   =   2478541.1934 
---------------- Step      400 ----- CPU =    207.9566 (sec) ----------------
TotEng   =   -202596.6241 KinEng   =    171389.2110 Temp     =       298.7335 
PotEng   =   -373985.8352 E_bond   =     20253.4067 E_angle  =     87259.1807 
E_dihed  =     41839.4022 E_impro  =      1746.4030 E_vdwl   =    -16480.5306 
E_coul   =   1668671.3174 E_long   =  -2177275.0146 Press    =       164.1709 
Volume   =   2478369.3048 
---------------- Step      450 ----- CPU =    234.1874 (sec) ----------------
TotEng   =   -202776.4776 KinEng   =    171798.8017 Temp     =       299.4474 
PotEng   =   -374575.2793 E_bond   =     19942.3148 E_angle  =     87162.8164 
E_dihed  =     42127.7617 E_impro  =      1796.3954 E_vdwl   =    -16576.7359 
E_coul   =   1668154.0771 E_long   =  -2177181.9089 Press    =       271.3886 
Volume   =   2478081.5891 
---------------- Step      500 ----- CPU =    260.4234 (sec) ----------------
TotEng   =   -200890.0999 KinEng   =    172063.5290 Temp     =       299.9088 
PotEng   =   -372953.6289 E_bond   =     20631.3681 E_angle  =     87220.3702 
E_dihed  =     42102.2283 E_impro  =      1760.0282 E_vdwl   =    -16350.9451 
E_coul   =   1668860.1446 E_long   =  -2177176.8232 Press    =      -123.4108 
Volume   =   2478252.3016 
---------------- Step      550 ----- CPU =    287.1702 (sec) ----------------
TotEng   =   -199167.6886 KinEng   =    173328.1596 Temp     =       302.1131 
PotEng   =   -372495.8482 E_bond   =     20314.8778 E_angle  =     87407.1135 
E_dihed  =     41643.7921 E_impro  =      1853.7207 E_vdwl   =    -15519.2841 
E_coul   =   1669017.7090 E_long   =  -2177213.7773 Press    =       455.4713 
Volume   =   2479338.3646 
---------------- Step      600 ----- CPU =    313.4307 (sec) ----------------
TotEng   =   -199172.4992 KinEng   =    173246.9440 Temp     =       301.9715 
PotEng   =   -372419.4432 E_bond   =     20356.3300 E_angle  =     87929.0101 
E_dihed  =     41974.4380 E_impro  =      1769.1488 E_vdwl   =    -17747.6578 
E_coul   =   1670551.8140 E_long   =  -2177252.5262 Press    =         5.2129 
Volume   =   2481769.7576 
---------------- Step      650 ----- CPU =    339.6528 (sec) ----------------
TotEng   =   -200560.7086 KinEng   =    172235.2375 Temp     =       300.2081 
PotEng   =   -372795.9461 E_bond   =     20226.7149 E_angle  =     86629.7371 
E_dihed  =     41982.7615 E_impro  =      1694.4591 E_vdwl   =    -17330.0142 
E_coul   =   1671260.4574 E_long   =  -2177260.0618 Press    =      -162.5593 
Volume   =   2483503.0951 
---------------- Step      700 ----- CPU =    365.9006 (sec) ----------------
TotEng   =   -201261.1687 KinEng   =    171886.0953 Temp     =       299.5995 
PotEng   =   -373147.2641 E_bond   =     20029.5494 E_angle  =     87360.6109 
E_dihed  =     41898.9380 E_impro  =      1739.2652 E_vdwl   =    -17573.7386 
E_coul   =   1670674.0663 E_long   =  -2177275.9553 Press    =       101.5247 
Volume   =   2484550.2112 
---------------- Step      750 ----- CPU =    392.6182 (sec) ----------------
TotEng   =   -201108.9010 KinEng   =    171263.1725 Temp     =       298.5138 
PotEng   =   -372372.0736 E_bond   =     20491.1825 E_angle  =     88081.1096 
E_dihed  =     42065.7747 E_impro  =      1713.5201 E_vdwl   =    -16849.6463 
E_coul   =   1669375.3791 E_long   =  -2177249.3933 Press    =       138.9440 
Volume   =   2484903.5066 
---------------- Step      800 ----- CPU =    418.8821 (sec) ----------------
TotEng   =   -200473.3083 KinEng   =    171667.2965 Temp     =       299.2182 
PotEng   =   -372140.6049 E_bond   =     20073.5272 E_angle  =     88383.6781 
E_dihed  =     42261.6959 E_impro  =      1762.9304 E_vdwl   =    -16820.8209 
E_coul   =   1669421.2185 E_long   =  -2177222.8339 Press    =        18.8401 
Volume   =   2484593.1995 
---------------- Step      850 ----- CPU =    445.1193 (sec) ----------------
TotEng   =   -199588.8827 KinEng   =    172349.4708 Temp     =       300.4072 
PotEng   =   -371938.3535 E_bond   =     20400.4453 E_angle  =     87743.7974 
E_dihed  =     42167.3730 E_impro  =      1738.6846 E_vdwl   =    -17224.9291 
E_coul   =   1670462.7411 E_long   =  -2177226.4657 Press    =        36.3690 
Volume   =   2483290.2322 
---------------- Step      900 ----- CPU =    471.4018 (sec) ----------------
TotEng   =   -199147.9236 KinEng   =    172454.5534 Temp     =       300.5904 
PotEng   =   -371602.4770 E_bond   =     20281.8075 E_angle  =     87865.8852 
E_dihed  =     42385.5527 E_impro  =      1897.9987 E_vdwl   =    -16406.0087 
E_coul   =   1669604.5275 E_long   =  -2177232.2399 Press    =       205.5833 
Volume   =   2481170.5124 
---------------- Step      950 ----- CPU =    497.6968 (sec) ----------------
TotEng   =   -199710.2051 KinEng   =    171953.1909 Temp     =       299.7165 
PotEng   =   -371663.3960 E_bond   =     20249.4134 E_angle  =     88372.0360 
E_dihed  =     42245.1951 E_impro  =      1902.7488 E_vdwl   =    -16601.7508 
E_coul   =   1669369.8061 E_long   =  -2177200.8447 Press    =       -39.3311 
Volume   =   2479349.5869 
---------------- Step     1000 ----- CPU =    523.9932 (sec) ----------------
TotEng   =   -201022.1760 KinEng   =    172004.9803 Temp     =       299.8068 
PotEng   =   -373027.1563 E_bond   =     20413.6389 E_angle  =     87788.2908 
E_dihed  =     41974.8045 E_impro  =      1724.0545 E_vdwl   =    -16961.3321 
E_coul   =   1669260.8589 E_long   =  -2177227.4718 Press    =        80.5771 
Volume   =   2478005.4046 
---------------- Step     1050 ----- CPU =    550.8203 (sec) ----------------
TotEng   =   -201638.4451 KinEng   =    171549.0621 Temp     =       299.0121 
PotEng   =   -373187.5072 E_bond   =     20358.0206 E_angle  =     87785.9178 
E_dihed  =     42071.9339 E_impro  =      1811.0673 E_vdwl   =    -17024.6658 
E_coul   =   1669048.4939 E_long   =  -2177238.2749 Press    =      -110.9116 
Volume   =   2476939.5613 
---------------- Step     1100 ----- CPU =    577.1655 (sec) ----------------
TotEng   =   -201432.2913 KinEng   =    171814.4670 Temp     =       299.4747 
PotEng   =   -373246.7583 E_bond   =     20362.3732 E_angle  =     87978.2280 
E_dihed  =     41973.6569 E_impro  =      1852.1898 E_vdwl   =    -17022.6018 
E_coul   =   1668859.7954 E_long   =  -2177250.3998 Press    =       134.2201 
Volume   =   2475531.5306 
---------------- Step     1150 ----- CPU =    603.4881 (sec) ----------------
TotEng   =   -200793.5757 KinEng   =    172233.9195 Temp     =       300.2058 
PotEng   =   -373027.4951 E_bond   =     20481.2370 E_angle  =     87967.2110 
E_dihed  =     42070.0895 E_impro  =      1719.6071 E_vdwl   =    -16858.8622 
E_coul   =   1668856.1889 E_long   =  -2177262.9665 Press    =        60.5579 
Volume   =   2474237.2548 
---------------- Step     1200 ----- CPU =    629.8863 (sec) ----------------
TotEng   =   -200397.0969 KinEng   =    172146.5825 Temp     =       300.0536 
PotEng   =   -372543.6794 E_bond   =     20557.4907 E_angle  =     87769.7547 
E_dihed  =     42005.4520 E_impro  =      1805.6722 E_vdwl   =    -17059.2081 
E_coul   =   1669579.9080 E_long   =  -2177202.7489 Press    =        83.1088 
Volume   =   2473309.6013 
---------------- Step     1250 ----- CPU =    656.2150 (sec) ----------------
TotEng   =   -200300.5689 KinEng   =    172034.5645 Temp     =       299.8583 
PotEng   =   -372335.1334 E_bond   =     20627.3776 E_angle  =     88343.3608 
E_dihed  =     42058.2152 E_impro  =      1791.5323 E_vdwl   =    -16761.9917 
E_coul   =   1668887.1985 E_long   =  -2177280.8260 Press    =        96.4964 
Volume   =   2473374.6320 
---------------- Step     1300 ----- CPU =    682.5689 (sec) ----------------
TotEng   =   -200684.5223 KinEng   =    172278.1955 Temp     =       300.2830 
PotEng   =   -372962.7178 E_bond   =     20806.8790 E_angle  =     87958.5027 
E_dihed  =     42074.2237 E_impro  =      1787.5002 E_vdwl   =    -16903.5364 
E_coul   =   1668596.0520 E_long   =  -2177282.3390 Press    =      -154.1001 
Volume   =   2473817.9661 
---------------- Step     1350 ----- CPU =    708.9123 (sec) ----------------
TotEng   =   -200962.0541 KinEng   =    171850.1049 Temp     =       299.5368 
PotEng   =   -372812.1589 E_bond   =     20708.0628 E_angle  =     88063.2919 
E_dihed  =     42006.1284 E_impro  =      1814.0303 E_vdwl   =    -17430.2245 
E_coul   =   1669287.8889 E_long   =  -2177261.3369 Press    =      -199.1622 
Volume   =   2474368.9758 
---------------- Step     1400 ----- CPU =    735.7903 (sec) ----------------
TotEng   =   -200883.4945 KinEng   =    172256.4888 Temp     =       300.2451 
PotEng   =   -373139.9833 E_bond   =     20462.7821 E_angle  =     87858.8961 
E_dihed  =     42046.4404 E_impro  =      1763.1298 E_vdwl   =    -17867.7454 
E_coul   =   1669848.5804 E_long   =  -2177252.0668 Press    =        -6.0796 
Volume   =   2474524.0586 
---------------- Step     1450 ----- CPU =    762.1485 (sec) ----------------
TotEng   =   -200571.6894 KinEng   =    172094.6114 Temp     =       299.9630 
PotEng   =   -372666.3008 E_bond   =     20656.2444 E_angle  =     87890.8501 
E_dihed  =     42066.9555 E_impro  =      1801.4486 E_vdwl   =    -16595.7762 
E_coul   =   1668760.1315 E_long   =  -2177246.1547 Press    =       -73.9834 
Volume   =   2474763.9822 
---------------- Step     1500 ----- CPU =    787.9859 (sec) ----------------
TotEng   =   -200694.7046 KinEng   =    172179.0393 Temp     =       300.1101 
PotEng   =   -372873.7439 E_bond   =     20661.5636 E_angle  =     87696.6342 
E_dihed  =     42159.0666 E_impro  =      1762.1410 E_vdwl   =    -16910.7283 
E_coul   =   1669013.7640 E_long   =  -2177256.1851 Press    =        39.3838 
Volume   =   2474839.8103 
---------------- Step     1550 ----- CPU =    814.3316 (sec) ----------------
TotEng   =   -201078.1640 KinEng   =    171993.9026 Temp     =       299.7874 
PotEng   =   -373072.0666 E_bond   =     20467.9377 E_angle  =     87961.8535 
E_dihed  =     42005.5505 E_impro  =      1808.1038 E_vdwl   =    -16973.5659 
E_coul   =   1668893.3445 E_long   =  -2177235.2907 Press    =         8.6907 
Volume   =   2475102.8822 
---------------- Step     1600 ----- CPU =    840.6733 (sec) ----------------
TotEng   =   -201129.0793 KinEng   =    171998.2425 Temp     =       299.7950 
PotEng   =   -373127.3218 E_bond   =     20446.2634 E_angle  =     87565.3752 
E_dihed  =     42075.2714 E_impro  =      1763.3700 E_vdwl   =    -16844.4677 
E_coul   =   1669152.7299 E_long   =  -2177285.8642 Press    =        18.4334 
Volume   =   2475386.7094 
---------------- Step     1650 ----- CPU =    867.0256 (sec) ----------------
TotEng   =   -200839.3187 KinEng   =    172092.3066 Temp     =       299.9590 
PotEng   =   -372931.6253 E_bond   =     20687.9285 E_angle  =     87691.3492 
E_dihed  =     41979.2606 E_impro  =      1786.9320 E_vdwl   =    -17148.0869 
E_coul   =   1669303.5693 E_long   =  -2177232.5780 Press    =       -15.9605 
Volume   =   2475350.4312 
---------------- Step     1700 ----- CPU =    893.3299 (sec) ----------------
TotEng   =   -200566.0829 KinEng   =    171988.6836 Temp     =       299.7784 
PotEng   =   -372554.7665 E_bond   =     20704.1425 E_angle  =     88356.7107 
E_dihed  =     42178.8701 E_impro  =      1837.6613 E_vdwl   =    -17534.4239 
E_coul   =   1669156.7658 E_long   =  -2177254.4930 Press    =      -152.8796 
Volume   =   2475024.4028 
---------------- Step     1750 ----- CPU =    920.1580 (sec) ----------------
TotEng   =   -200554.5139 KinEng   =    172372.1466 Temp     =       300.4467 
PotEng   =   -372926.6605 E_bond   =     20453.6959 E_angle  =     87927.5091 
E_dihed  =     42221.8904 E_impro  =      1822.0386 E_vdwl   =    -16777.6347 
E_coul   =   1668731.8794 E_long   =  -2177306.0392 Press    =       -46.8215 
Volume   =   2474062.0223 
---------------- Step     1800 ----- CPU =    945.9956 (sec) ----------------
TotEng   =   -200945.1335 KinEng   =    172044.5470 Temp     =       299.8757 
PotEng   =   -372989.6805 E_bond   =     20577.5089 E_angle  =     87829.3115 
E_dihed  =     42096.3510 E_impro  =      1811.5687 E_vdwl   =    -16790.3689 
E_coul   =   1668770.5088 E_long   =  -2177284.5605 Press    =      -136.3207 
Volume   =   2473223.5090 
---------------- Step     1850 ----- CPU =    972.3914 (sec) ----------------
TotEng   =   -201201.7595 KinEng   =    172140.8399 Temp     =       300.0436 
PotEng   =   -373342.5994 E_bond   =     20496.9945 E_angle  =     87705.1500 
E_dihed  =     42110.8066 E_impro  =      1782.5491 E_vdwl   =    -16342.9297 
E_coul   =   1668204.0265 E_long   =  -2177299.1964 Press    =       157.0713 
Volume   =   2472392.6909 
---------------- Step     1900 ----- CPU =    999.2794 (sec) ----------------
TotEng   =   -201429.6372 KinEng   =    172399.3196 Temp     =       300.4941 
PotEng   =   -373828.9568 E_bond   =     20414.3117 E_angle  =     87872.8226 
E_dihed  =     42110.8037 E_impro  =      1776.4088 E_vdwl   =    -17431.1856 
E_coul   =   1668661.3161 E_long   =  -2177233.4341 Press    =        49.1114 
Volume   =   2472289.4566 
---------------- Step     1950 ----- CPU =   1025.6427 (sec) ----------------
TotEng   =   -201534.5121 KinEng   =    171760.0779 Temp     =       299.3799 
PotEng   =   -373294.5900 E_bond   =     20364.0818 E_angle  =     87773.6081 
E_dihed  =     42341.4845 E_impro  =      1801.1765 E_vdwl   =    -16727.3334 
E_coul   =   1668417.9498 E_long   =  -2177265.5573 Press    =       -58.5351 
Volume   =   2472400.8824 
---------------- Step     2000 ----- CPU =   1051.5108 (sec) ----------------
TotEng   =   -201305.5279 KinEng   =    171911.2988 Temp     =       299.6435 
PotEng   =   -373216.8267 E_bond   =     20601.1300 E_angle  =     88039.3828 
E_dihed  =     42101.3453 E_impro  =      1809.4689 E_vdwl   =    -16808.4052 
E_coul   =   1668347.5757 E_long   =  -2177307.3242 Press    =       -11.1626 
Volume   =   2472820.5304 
---------------- Step     2050 ----- CPU =   1077.8631 (sec) ----------------
TotEng   =   -200901.4242 KinEng   =    171664.6462 Temp     =       299.2136 
PotEng   =   -372566.0703 E_bond   =     20524.0552 E_angle  =     88052.9882 
E_dihed  =     42267.3705 E_impro  =      1800.0747 E_vdwl   =    -16469.8550 
E_coul   =   1668539.2657 E_long   =  -2177279.9696 Press    =         0.4393 
Volume   =   2473186.1561 
---------------- Step     2100 ----- CPU =   1104.2231 (sec) ----------------
TotEng   =   -200503.8828 KinEng   =    172226.6595 Temp     =       300.1931 
PotEng   =   -372730.5424 E_bond   =     20502.3346 E_angle  =     88254.3609 
E_dihed  =     42104.9189 E_impro  =      1781.7038 E_vdwl   =    -16902.7339 
E_coul   =   1668791.0491 E_long   =  -2177262.1757 Press    =        24.5312 
Volume   =   2473530.8657 
---------------- Step     2150 ----- CPU =   1130.5561 (sec) ----------------
TotEng   =   -200418.7961 KinEng   =    172601.0839 Temp     =       300.8458 
PotEng   =   -373019.8800 E_bond   =     20516.7705 E_angle  =     87849.5969 
E_dihed  =     42195.2536 E_impro  =      1782.3193 E_vdwl   =    -16584.2699 
E_coul   =   1668470.7536 E_long   =  -2177250.3039 Press    =       -17.5432 
Volume   =   2473467.9740 
---------------- Step     2200 ----- CPU =   1156.9053 (sec) ----------------
TotEng   =   -200900.7164 KinEng   =    172411.6481 Temp     =       300.5156 
PotEng   =   -373312.3645 E_bond   =     20472.8461 E_angle  =     88017.3567 
E_dihed  =     42192.4915 E_impro  =      1815.9657 E_vdwl   =    -16545.3208 
E_coul   =   1667993.8783 E_long   =  -2177259.5820 Press    =       -45.1803 
Volume   =   2473478.9526 
---------------- Step     2250 ----- CPU =   1183.2475 (sec) ----------------
TotEng   =   -201630.4773 KinEng   =    172199.6971 Temp     =       300.1462 
PotEng   =   -373830.1743 E_bond   =     20589.7245 E_angle  =     87839.4821 
E_dihed  =     41942.1079 E_impro  =      1765.5921 E_vdwl   =    -17117.2961 
E_coul   =   1668401.6627 E_long   =  -2177251.4475 Press    =        -0.7097 
Volume   =   2473461.9643 
---------------- Step     2300 ----- CPU =   1209.6349 (sec) ----------------
TotEng   =   -201957.1926 KinEng   =    172003.3508 Temp     =       299.8039 
PotEng   =   -373960.5434 E_bond   =     20488.9231 E_angle  =     88008.1286 
E_dihed  =     42018.2756 E_impro  =      1779.3367 E_vdwl   =    -16190.1705 
E_coul   =   1667212.5156 E_long   =  -2177277.5524 Press    =        61.5947 
Volume   =   2473351.0793 
---------------- Step     2350 ----- CPU =   1236.0197 (sec) ----------------
TotEng   =   -201761.0544 KinEng   =    172035.4638 Temp     =       299.8599 
PotEng   =   -373796.5182 E_bond   =     20379.7016 E_angle  =     87879.2154 
E_dihed  =     42057.9645 E_impro  =      1830.1001 E_vdwl   =    -16865.1129 
E_coul   =   1668175.0757 E_long   =  -2177253.4626 Press    =        23.9423 
Volume   =   2473412.3982 
---------------- Step     2400 ----- CPU =   1262.3891 (sec) ----------------
TotEng   =   -201092.0340 KinEng   =    172479.5637 Temp     =       300.6340 
PotEng   =   -373571.5977 E_bond   =     20449.2211 E_angle  =     87927.1385 
E_dihed  =     41978.2122 E_impro  =      1809.3016 E_vdwl   =    -16735.4572 
E_coul   =   1668230.5426 E_long   =  -2177230.5564 Press    =       -75.8048 
Volume   =   2473597.1336 
---------------- Step     2450 ----- CPU =   1288.7477 (sec) ----------------
TotEng   =   -200420.3315 KinEng   =    172198.8061 Temp     =       300.1446 
PotEng   =   -372619.1376 E_bond   =     20613.8523 E_angle  =     88260.9945 
E_dihed  =     42102.7817 E_impro  =      1811.1522 E_vdwl   =    -16404.5035 
E_coul   =   1668230.1520 E_long   =  -2177233.5669 Press    =        14.6876 
Volume   =   2473616.0441 
---------------- Step     2500 ----- CPU =   1315.1025 (sec) ----------------
TotEng   =   -200262.5079 KinEng   =    172862.5807 Temp     =       301.3016 
PotEng   =   -373125.0887 E_bond   =     20854.6027 E_angle  =     88024.6349 
E_dihed  =     41972.5988 E_impro  =      1767.4862 E_vdwl   =    -16845.1159 
E_coul   =   1668354.3563 E_long   =  -2177253.6515 Press    =       -65.7011 
Volume   =   2473581.8475 
---------------- Step     2550 ----- CPU =   1341.4694 (sec) ----------------
TotEng   =   -200958.0543 KinEng   =    172195.8014 Temp     =       300.1394 
PotEng   =   -373153.8557 E_bond   =     20587.4068 E_angle  =     88176.4635 
E_dihed  =     41996.0656 E_impro  =      1775.6674 E_vdwl   =    -16928.3212 
E_coul   =   1668535.7348 E_long   =  -2177296.8726 Press    =       -41.1115 
Volume   =   2473894.0303 
---------------- Step     2600 ----- CPU =   1368.3176 (sec) ----------------
TotEng   =   -201751.6659 KinEng   =    171650.6096 Temp     =       299.1891 
PotEng   =   -373402.2755 E_bond   =     20556.0676 E_angle  =     88196.9224 
E_dihed  =     42173.4354 E_impro  =      1751.8078 E_vdwl   =    -17219.5190 
E_coul   =   1668428.3204 E_long   =  -2177289.3101 Press    =      -159.2089 
Volume   =   2473899.4953 
---------------- Step     2650 ----- CPU =   1394.7083 (sec) ----------------
TotEng   =   -201707.5526 KinEng   =    172077.9435 Temp     =       299.9339 
PotEng   =   -373785.4961 E_bond   =     20525.0672 E_angle  =     87912.3661 
E_dihed  =     42190.1333 E_impro  =      1760.9962 E_vdwl   =    -16994.8264 
E_coul   =   1668121.4316 E_long   =  -2177300.6640 Press    =       -74.4507 
Volume   =   2473426.5886 
---------------- Step     2700 ----- CPU =   1421.0657 (sec) ----------------
TotEng   =   -200944.9683 KinEng   =    172191.7733 Temp     =       300.1323 
PotEng   =   -373136.7416 E_bond   =     20625.8592 E_angle  =     88231.9875 
E_dihed  =     42150.8176 E_impro  =      1799.0758 E_vdwl   =    -16413.0545 
E_coul   =   1667714.9200 E_long   =  -2177246.3473 Press    =       -78.1726 
Volume   =   2472775.0312 
---------------- Step     2750 ----- CPU =   1447.4556 (sec) ----------------
TotEng   =   -200303.9776 KinEng   =    171997.1509 Temp     =       299.7931 
PotEng   =   -372301.1285 E_bond   =     20730.3433 E_angle  =     88701.1046 
E_dihed  =     42244.3313 E_impro  =      1799.6383 E_vdwl   =    -17021.6162 
E_coul   =   1668455.6647 E_long   =  -2177210.5944 Press    =      -126.8031 
Volume   =   2472004.8694 
---------------- Step     2800 ----- CPU =   1473.8552 (sec) ----------------
TotEng   =   -200465.6907 KinEng   =    172585.9874 Temp     =       300.8195 
PotEng   =   -373051.6782 E_bond   =     20493.3997 E_angle  =     88355.4463 
E_dihed  =     42118.4898 E_impro  =      1794.4690 E_vdwl   =    -16631.6791 
E_coul   =   1668101.1741 E_long   =  -2177282.9780 Press    =        42.8675 
Volume   =   2471536.6345 
---------------- Step     2850 ----- CPU =   1500.2424 (sec) ----------------
TotEng   =   -201379.5162 KinEng   =    171405.8067 Temp     =       298.7624 
PotEng   =   -372785.3230 E_bond   =     20636.3472 E_angle  =     88124.0201 
E_dihed  =     42099.8135 E_impro  =      1819.7809 E_vdwl   =    -16892.5277 
E_coul   =   1668703.9218 E_long   =  -2177276.6787 Press    =       -65.1037 
Volume   =   2471624.3177 
---------------- Step     2900 ----- CPU =   1526.6412 (sec) ----------------
TotEng   =   -201995.0717 KinEng   =    171833.2241 Temp     =       299.5074 
PotEng   =   -373828.2959 E_bond   =     20755.4495 E_angle  =     87926.0261 
E_dihed  =     42014.8897 E_impro  =      1753.9932 E_vdwl   =    -17039.1546 
E_coul   =   1668079.6563 E_long   =  -2177319.1560 Press    =       -69.0113 
Volume   =   2471349.9924 
---------------- Step     2950 ----- CPU =   1553.0697 (sec) ----------------
TotEng   =   -201882.3296 KinEng   =    171850.8397 Temp     =       299.5381 
PotEng   =   -373733.1693 E_bond   =     20375.0616 E_angle  =     88142.0195 
E_dihed  =     42099.2485 E_impro  =      1775.2855 E_vdwl   =    -16628.4999 
E_coul   =   1667781.7744 E_long   =  -2177278.0589 Press    =        33.2262 
Volume   =   2470805.7132 
---------------- Step     3000 ----- CPU =   1579.4628 (sec) ----------------
TotEng   =   -201270.8094 KinEng   =    172059.7173 Temp     =       299.9022 
PotEng   =   -373330.5267 E_bond   =     20666.3279 E_angle  =     88374.8391 
E_dihed  =     42108.7318 E_impro  =      1832.2176 E_vdwl   =    -16810.7652 
E_coul   =   1667793.5716 E_long   =  -2177295.4495 Press    =       -19.2047 
Volume   =   2470473.4308 
---------------- Step     3050 ----- CPU =   1605.8864 (sec) ----------------
TotEng   =   -200650.4514 KinEng   =    172970.9121 Temp     =       301.4904 
PotEng   =   -373621.3635 E_bond   =     20615.2096 E_angle  =     88152.4972 
E_dihed  =     42117.6013 E_impro  =      1816.9543 E_vdwl   =    -16958.0229 
E_coul   =   1667946.3390 E_long   =  -2177311.9420 Press    =        38.0505 
Volume   =   2470174.8369 
---------------- Step     3100 ----- CPU =   1632.2858 (sec) ----------------
TotEng   =   -200879.4262 KinEng   =    172103.2362 Temp     =       299.9780 
PotEng   =   -372982.6624 E_bond   =     20562.6668 E_angle  =     88354.4872 
E_dihed  =     42179.4827 E_impro  =      1766.0254 E_vdwl   =    -16531.0317 
E_coul   =   1667960.6523 E_long   =  -2177274.9450 Press    =        99.0692 
Volume   =   2470364.5080 
---------------- Step     3150 ----- CPU =   1658.7166 (sec) ----------------
TotEng   =   -201507.2520 KinEng   =    172319.6586 Temp     =       300.3552 
PotEng   =   -373826.9107 E_bond   =     20599.8607 E_angle  =     88091.3995 
E_dihed  =     41999.4511 E_impro  =      1821.2319 E_vdwl   =    -16733.4065 
E_coul   =   1667684.0200 E_long   =  -2177289.4673 Press    =      -160.3768 
Volume   =   2470999.2700 
---------------- Step     3200 ----- CPU =   1685.1059 (sec) ----------------
TotEng   =   -202002.3257 KinEng   =    171935.7791 Temp     =       299.6861 
PotEng   =   -373938.1048 E_bond   =     20630.4981 E_angle  =     88347.4282 
E_dihed  =     41995.6667 E_impro  =      1764.9151 E_vdwl   =    -16869.7755 
E_coul   =   1667469.3414 E_long   =  -2177276.1787 Press    =       -60.9163 
Volume   =   2471575.2977 
---------------- Step     3250 ----- CPU =   1711.5029 (sec) ----------------
TotEng   =   -202048.2304 KinEng   =    171708.2729 Temp     =       299.2896 
PotEng   =   -373756.5032 E_bond   =     20618.4588 E_angle  =     88268.1208 
E_dihed  =     41976.4851 E_impro  =      1816.1477 E_vdwl   =    -17046.2534 
E_coul   =   1667905.4099 E_long   =  -2177294.8721 Press    =       -38.1272 
Volume   =   2471904.6813 
---------------- Step     3300 ----- CPU =   1737.8736 (sec) ----------------
TotEng   =   -201598.1007 KinEng   =    172146.9862 Temp     =       300.0543 
PotEng   =   -373745.0869 E_bond   =     20642.2801 E_angle  =     88178.3233 
E_dihed  =     41918.9352 E_impro  =      1817.0193 E_vdwl   =    -16711.7963 
E_coul   =   1667684.0095 E_long   =  -2177273.8580 Press    =       -13.3641 
Volume   =   2472070.9794 
---------------- Step     3350 ----- CPU =   1764.2805 (sec) ----------------
TotEng   =   -201166.1228 KinEng   =    172195.9498 Temp     =       300.1396 
PotEng   =   -373362.0726 E_bond   =     20710.5464 E_angle  =     88268.9211 
E_dihed  =     42072.7529 E_impro  =      1806.4971 E_vdwl   =    -16735.5919 
E_coul   =   1667786.9783 E_long   =  -2177272.1766 Press    =       -21.2825 
Volume   =   2471908.4710 
---------------- Step     3400 ----- CPU =   1790.6782 (sec) ----------------
TotEng   =   -200670.4895 KinEng   =    172633.4552 Temp     =       300.9022 
PotEng   =   -373303.9446 E_bond   =     20524.6132 E_angle  =     88552.0507 
E_dihed  =     42155.2127 E_impro  =      1787.1571 E_vdwl   =    -16454.9622 
E_coul   =   1667423.8316 E_long   =  -2177291.8476 Press    =        -8.1927 
Volume   =   2471781.1660 
---------------- Step     3450 ----- CPU =   1817.5746 (sec) ----------------
TotEng   =   -201001.0889 KinEng   =    172264.0749 Temp     =       300.2584 
PotEng   =   -373265.1638 E_bond   =     20493.4348 E_angle  =     88689.6469 
E_dihed  =     42112.1050 E_impro  =      1774.9404 E_vdwl   =    -16443.6681 
E_coul   =   1667389.9406 E_long   =  -2177281.5634 Press    =        18.5762 
Volume   =   2471401.0296 
---------------- Step     3500 ----- CPU =   1843.4606 (sec) ----------------
TotEng   =   -201796.4577 KinEng   =    171925.5975 Temp     =       299.6684 
PotEng   =   -373722.0552 E_bond   =     20615.2007 E_angle  =     88056.8769 
E_dihed  =     42181.7117 E_impro  =      1830.5162 E_vdwl   =    -17255.6533 
E_coul   =   1668131.2043 E_long   =  -2177281.9117 Press    =       -96.4387 
Volume   =   2470814.7538 
---------------- Step     3550 ----- CPU =   1870.3612 (sec) ----------------
TotEng   =   -202016.5379 KinEng   =    171773.1143 Temp     =       299.4026 
PotEng   =   -373789.6522 E_bond   =     20650.0403 E_angle  =     88474.1188 
E_dihed  =     42081.8660 E_impro  =      1750.0975 E_vdwl   =    -17183.4004 
E_coul   =   1667730.7171 E_long   =  -2177293.0914 Press    =      -104.7429 
Volume   =   2470320.4510 
---------------- Step     3600 ----- CPU =   1896.7540 (sec) ----------------
TotEng   =   -201637.2536 KinEng   =    171891.5408 Temp     =       299.6090 
PotEng   =   -373528.7944 E_bond   =     20768.5757 E_angle  =     88767.5283 
E_dihed  =     42108.2560 E_impro  =      1794.2351 E_vdwl   =    -16645.6271 
E_coul   =   1666982.0198 E_long   =  -2177303.7822 Press    =       -73.1155 
Volume   =   2469733.6146 
---------------- Step     3650 ----- CPU =   1923.1737 (sec) ----------------
TotEng   =   -201294.0311 KinEng   =    172209.2264 Temp     =       300.1628 
PotEng   =   -373503.2575 E_bond   =     20724.9807 E_angle  =     88430.5756 
E_dihed  =     42048.0453 E_impro  =      1797.7300 E_vdwl   =    -16261.6892 
E_coul   =   1667027.9786 E_long   =  -2177270.8786 Press    =        89.6546 
Volume   =   2468891.0754 
---------------- Step     3700 ----- CPU =   1949.5621 (sec) ----------------
TotEng   =   -201404.1983 KinEng   =    172120.0382 Temp     =       300.0073 
PotEng   =   -373524.2365 E_bond   =     20541.1928 E_angle  =     88648.7175 
E_dihed  =     41961.2275 E_impro  =      1821.5082 E_vdwl   =    -16269.8856 
E_coul   =   1667058.2554 E_long   =  -2177285.2523 Press    =        65.4959 
Volume   =   2468476.6388 
---------------- Step     3750 ----- CPU =   1975.9519 (sec) ----------------
TotEng   =   -201817.6968 KinEng   =    172094.0470 Temp     =       299.9620 
PotEng   =   -373911.7438 E_bond   =     20540.3050 E_angle  =     88531.6960 
E_dihed  =     41931.3960 E_impro  =      1777.1137 E_vdwl   =    -16708.3357 
E_coul   =   1667291.4420 E_long   =  -2177275.3608 Press    =       -36.1924 
Volume   =   2468825.9503 
---------------- Step     3800 ----- CPU =   2002.3714 (sec) ----------------
TotEng   =   -202124.2678 KinEng   =    171912.0278 Temp     =       299.6447 
PotEng   =   -374036.2956 E_bond   =     20825.9896 E_angle  =     88200.9492 
E_dihed  =     42085.3874 E_impro  =      1792.9358 E_vdwl   =    -17185.6804 
E_coul   =   1667551.0454 E_long   =  -2177306.9225 Press    =      -129.9453 
Volume   =   2469227.7518 
---------------- Step     3850 ----- CPU =   2028.7754 (sec) ----------------
TotEng   =   -202096.1239 KinEng   =    172085.7200 Temp     =       299.9475 
PotEng   =   -374181.8439 E_bond   =     20549.5242 E_angle  =     88165.1316 
E_dihed  =     42051.9592 E_impro  =      1789.5209 E_vdwl   =    -17029.1072 
E_coul   =   1667592.1870 E_long   =  -2177301.0596 Press    =        44.9370 
Volume   =   2469181.8852 
---------------- Step     3900 ----- CPU =   2055.2175 (sec) ----------------
TotEng   =   -201515.7159 KinEng   =    172249.6232 Temp     =       300.2332 
PotEng   =   -373765.3391 E_bond   =     20585.7138 E_angle  =     88397.1731 
E_dihed  =     42143.4202 E_impro  =      1789.6978 E_vdwl   =    -16913.2312 
E_coul   =   1667478.5663 E_long   =  -2177246.6792 Press    =        71.7974 
Volume   =   2468982.0798 
---------------- Step     3950 ----- CPU =   2081.6390 (sec) ----------------
TotEng   =   -200947.6273 KinEng   =    172128.0485 Temp     =       300.0213 
PotEng   =   -373075.6759 E_bond   =     20675.4559 E_angle  =     88396.6413 
E_dihed  =     42198.0626 E_impro  =      1797.7077 E_vdwl   =    -16835.3445 
E_coul   =   1667934.0444 E_long   =  -2177242.2432 Press    =       -50.6653 
Volume   =   2469391.0010 
---------------- Step     4000 ----- CPU =   2108.0663 (sec) ----------------
TotEng   =   -200924.2850 KinEng   =    172574.6961 Temp     =       300.7998 
PotEng   =   -373498.9811 E_bond   =     20545.2502 E_angle  =     88561.9734 
E_dihed  =     42006.9510 E_impro  =      1780.3228 E_vdwl   =    -16649.6464 
E_coul   =   1667509.3200 E_long   =  -2177253.1522 Press    =       -35.5226 
Volume   =   2469513.1498 
---------------- Step     4050 ----- CPU =   2134.4934 (sec) ----------------
TotEng   =   -201512.1449 KinEng   =    172274.8275 Temp     =       300.2771 
PotEng   =   -373786.9724 E_bond   =     20567.4218 E_angle  =     88443.8085 
E_dihed  =     42084.5254 E_impro  =      1782.1444 E_vdwl   =    -17120.6237 
E_coul   =   1667706.0239 E_long   =  -2177250.2726 Press    =      -204.3677 
Volume   =   2469625.3276 
---------------- Step     4100 ----- CPU =   2160.8920 (sec) ----------------
TotEng   =   -202168.1931 KinEng   =    171874.7992 Temp     =       299.5799 
PotEng   =   -374042.9923 E_bond   =     20342.1512 E_angle  =     88568.0389 
E_dihed  =     42081.3831 E_impro  =      1851.7658 E_vdwl   =    -16655.0291 
E_coul   =   1667011.4828 E_long   =  -2177242.7851 Press    =        59.0669 
Volume   =   2469839.2625 
---------------- Step     4150 ----- CPU =   2187.2693 (sec) ----------------
TotEng   =   -202536.7681 KinEng   =    171846.2882 Temp     =       299.5302 
PotEng   =   -374383.0563 E_bond   =     20553.7210 E_angle  =     88237.6100 
E_dihed  =     42046.4939 E_impro  =      1795.4747 E_vdwl   =    -16769.5848 
E_coul   =   1667003.7711 E_long   =  -2177250.5421 Press    =       -66.8090 
Volume   =   2470239.0968 
---------------- Step     4200 ----- CPU =   2213.6834 (sec) ----------------
TotEng   =   -202034.4160 KinEng   =    171466.4529 Temp     =       298.8681 
PotEng   =   -373500.8688 E_bond   =     20580.2314 E_angle  =     88436.7828 
E_dihed  =     42120.7134 E_impro  =      1801.4341 E_vdwl   =    -16901.8489 
E_coul   =   1667725.5275 E_long   =  -2177263.7091 Press    =      -114.6651 
Volume   =   2470313.0147 
---------------- Step     4250 ----- CPU =   2240.0946 (sec) ----------------
TotEng   =   -201086.0084 KinEng   =    172811.8667 Temp     =       301.2132 
PotEng   =   -373897.8751 E_bond   =     20670.2812 E_angle  =     88557.6700 
E_dihed  =     42101.2832 E_impro  =      1793.8576 E_vdwl   =    -16837.6892 
E_coul   =   1667110.6391 E_long   =  -2177293.9170 Press    =        21.6977 
Volume   =   2469892.0901 
---------------- Step     4300 ----- CPU =   2266.4868 (sec) ----------------
TotEng   =   -200789.1959 KinEng   =    172888.5140 Temp     =       301.3468 
PotEng   =   -373677.7099 E_bond   =     20477.3352 E_angle  =     88488.5867 
E_dihed  =     42066.5563 E_impro  =      1787.9048 E_vdwl   =    -16439.5915 
E_coul   =   1667221.0693 E_long   =  -2177279.5706 Press    =        82.0904 
Volume   =   2469313.2790 
---------------- Step     4350 ----- CPU =   2293.4196 (sec) ----------------
TotEng   =   -201127.1926 KinEng   =    172937.9861 Temp     =       301.4330 
PotEng   =   -374065.1787 E_bond   =     20702.9614 E_angle  =     88190.9850 
E_dihed  =     42147.9855 E_impro  =      1788.6981 E_vdwl   =    -16720.9333 
E_coul   =   1667103.9061 E_long   =  -2177278.7813 Press    =         3.5088 
Volume   =   2468781.4306 
---------------- Step     4400 ----- CPU =   2319.8479 (sec) ----------------
TotEng   =   -202156.7872 KinEng   =    171951.8975 Temp     =       299.7142 
PotEng   =   -374108.6847 E_bond   =     20652.5446 E_angle  =     88361.6291 
E_dihed  =     42298.9742 E_impro  =      1795.3440 E_vdwl   =    -16859.5077 
E_coul   =   1666959.5020 E_long   =  -2177317.1709 Press    =       -56.9583 
Volume   =   2468745.1700 
---------------- Step     4450 ----- CPU =   2346.2740 (sec) ----------------
TotEng   =   -202746.1582 KinEng   =    171355.2171 Temp     =       298.6742 
PotEng   =   -374101.3752 E_bond   =     20749.6945 E_angle  =     88252.4287 
E_dihed  =     42207.7501 E_impro  =      1841.3070 E_vdwl   =    -17082.7029 
E_coul   =   1667217.4509 E_long   =  -2177287.3035 Press    =       -52.9055 
Volume   =   2469124.6546 
---------------- Step     4500 ----- CPU =   2372.6978 (sec) ----------------
TotEng   =   -202316.4873 KinEng   =    172054.7371 Temp     =       299.8935 
PotEng   =   -374371.2244 E_bond   =     20414.1557 E_angle  =     88347.1673 
E_dihed  =     42011.6927 E_impro  =      1811.5333 E_vdwl   =    -16902.2014 
E_coul   =   1667226.2783 E_long   =  -2177279.8504 Press    =        -7.4718 
Volume   =   2469118.9785 
---------------- Step     4550 ----- CPU =   2399.1172 (sec) ----------------
TotEng   =   -201475.0236 KinEng   =    172319.7105 Temp     =       300.3553 
PotEng   =   -373794.7341 E_bond   =     20595.5957 E_angle  =     88550.4776 
E_dihed  =     42202.4728 E_impro  =      1793.1683 E_vdwl   =    -16858.8300 
E_coul   =   1667205.6032 E_long   =  -2177283.2216 Press    =         8.4692 
Volume   =   2468921.5646 
---------------- Step     4600 ----- CPU =   2424.9992 (sec) ----------------
TotEng   =   -201020.0495 KinEng   =    172407.6734 Temp     =       300.5087 
PotEng   =   -373427.7229 E_bond   =     20733.5796 E_angle  =     89021.5118 
E_dihed  =     42092.1555 E_impro  =      1840.4783 E_vdwl   =    -16562.6248 
E_coul   =   1666741.6021 E_long   =  -2177294.4255 Press    =       -51.7407 
Volume   =   2468875.7512 
---------------- Step     4650 ----- CPU =   2451.9649 (sec) ----------------
TotEng   =   -201268.9365 KinEng   =    172607.9131 Temp     =       300.8577 
PotEng   =   -373876.8495 E_bond   =     20712.7856 E_angle  =     88618.2718 
E_dihed  =     42196.0861 E_impro  =      1809.6340 E_vdwl   =    -16468.3463 
E_coul   =   1666524.8419 E_long   =  -2177270.1227 Press    =       -52.9341 
Volume   =   2468844.7069 
---------------- Step     4700 ----- CPU =   2478.3573 (sec) ----------------
TotEng   =   -202144.8529 KinEng   =    172097.5376 Temp     =       299.9681 
PotEng   =   -374242.3905 E_bond   =     20601.3622 E_angle  =     88270.4697 
E_dihed  =     42084.9559 E_impro  =      1796.3968 E_vdwl   =    -17196.7484 
E_coul   =   1667468.1965 E_long   =  -2177267.0232 Press    =         4.9716 
Volume   =   2468805.6648 
---------------- Step     4750 ----- CPU =   2504.8072 (sec) ----------------
TotEng   =   -202699.8730 KinEng   =    172034.2800 Temp     =       299.8578 
PotEng   =   -374734.1530 E_bond   =     20866.8747 E_angle  =     88398.2773 
E_dihed  =     42022.0563 E_impro  =      1776.7785 E_vdwl   =    -16840.6678 
E_coul   =   1666345.9682 E_long   =  -2177303.4403 Press    =      -155.2960 
Volume   =   2468873.2993 
---------------- Step     4800 ----- CPU =   2531.2378 (sec) ----------------
TotEng   =   -202462.4997 KinEng   =    171834.0239 Temp     =       299.5088 
PotEng   =   -374296.5237 E_bond   =     20719.3675 E_angle  =     88683.7433 
E_dihed  =     41938.9447 E_impro  =      1778.2152 E_vdwl   =    -17282.7612 
E_coul   =   1667157.4755 E_long   =  -2177291.5087 Press    =       -72.8804 
Volume   =   2468820.5318 
---------------- Step     4850 ----- CPU =   2557.6316 (sec) ----------------
TotEng   =   -201602.1498 KinEng   =    171999.4031 Temp     =       299.7970 
PotEng   =   -373601.5529 E_bond   =     20765.3118 E_angle  =     88673.6063 
E_dihed  =     42131.5996 E_impro  =      1880.1230 E_vdwl   =    -16619.1131 
E_coul   =   1666828.5692 E_long   =  -2177261.6496 Press    =       -46.4703 
Volume   =   2468391.3559 
---------------- Step     4900 ----- CPU =   2584.0302 (sec) ----------------
TotEng   =   -200994.8353 KinEng   =    172908.0242 Temp     =       301.3808 
PotEng   =   -373902.8595 E_bond   =     20735.3951 E_angle  =     88623.1474 
E_dihed  =     42190.2056 E_impro  =      1798.4948 E_vdwl   =    -16409.7454 
E_coul   =   1666440.9155 E_long   =  -2177281.2725 Press    =        76.3052 
Volume   =   2467716.1657 
---------------- Step     4950 ----- CPU =   2610.4455 (sec) ----------------
TotEng   =   -201532.7554 KinEng   =    172685.8652 Temp     =       300.9935 
PotEng   =   -374218.6206 E_bond   =     20762.6637 E_angle  =     88240.7278 
E_dihed  =     42126.0618 E_impro  =      1759.8693 E_vdwl   =    -16983.2167 
E_coul   =   1667166.0644 E_long   =  -2177290.7909 Press    =        19.1482 
Volume   =   2467272.1460 
---------------- Step     5000 ----- CPU =   2636.8112 (sec) ----------------
TotEng   =   -202385.2723 KinEng   =    171708.8746 Temp     =       299.2906 
PotEng   =   -374094.1469 E_bond   =     20696.4879 E_angle  =     88437.5276 
E_dihed  =     42231.1421 E_impro  =      1758.5464 E_vdwl   =    -16788.8152 
E_coul   =   1666829.0402 E_long   =  -2177258.0758 Press    =       -98.9116 
Volume   =   2467101.4081 
---------------- Step     5050 ----- CPU =   2663.2291 (sec) ----------------
TotEng   =   -202628.6623 KinEng   =    171781.3264 Temp     =       299.4169 
PotEng   =   -374409.9887 E_bond   =     20468.4930 E_angle  =     88536.0149 
E_dihed  =     42031.8054 E_impro  =      1779.3591 E_vdwl   =    -16587.5370 
E_coul   =   1666624.5877 E_long   =  -2177262.7119 Press    =       -67.8123 
Volume   =   2467038.0862 
---------------- Step     5100 ----- CPU =   2689.6488 (sec) ----------------
TotEng   =   -202274.8475 KinEng   =    171530.2838 Temp     =       298.9794 
PotEng   =   -373805.1313 E_bond   =     20758.6379 E_angle  =     88580.5988 
E_dihed  =     42334.9805 E_impro  =      1816.5423 E_vdwl   =    -16130.1081 
E_coul   =   1666109.3017 E_long   =  -2177275.0843 Press    =        58.4597 
Volume   =   2467611.9223 
---------------- Step     5150 ----- CPU =   2716.0802 (sec) ----------------
TotEng   =   -201786.8010 KinEng   =    172458.5948 Temp     =       300.5974 
PotEng   =   -374245.3958 E_bond   =     20747.7477 E_angle  =     88213.3752 
E_dihed  =     42244.9378 E_impro  =      1769.0583 E_vdwl   =    -16899.3863 
E_coul   =   1666914.7831 E_long   =  -2177235.9116 Press    =       -31.3449 
Volume   =   2467995.7880 
---------------- Step     5200 ----- CPU =   2742.5183 (sec) ----------------
TotEng   =   -201458.8118 KinEng   =    172275.2784 Temp     =       300.2779 
PotEng   =   -373734.0902 E_bond   =     20698.5237 E_angle  =     88714.0701 
E_dihed  =     42390.3655 E_impro  =      1771.3190 E_vdwl   =    -16939.3957 
E_coul   =   1666902.8729 E_long   =  -2177271.8457 Press    =       -49.5432 
Volume   =   2467943.0070 
---------------- Step     5250 ----- CPU =   2768.9191 (sec) ----------------
TotEng   =   -201463.9398 KinEng   =    172370.9801 Temp     =       300.4447 
PotEng   =   -373834.9199 E_bond   =     20670.4899 E_angle  =     88377.6227 
E_dihed  =     42379.8622 E_impro  =      1811.7589 E_vdwl   =    -16677.3660 
E_coul   =   1666889.4145 E_long   =  -2177286.7021 Press    =       -56.3988 
Volume   =   2468053.4669 
---------------- Step     5300 ----- CPU =   2795.3512 (sec) ----------------
TotEng   =   -201820.2220 KinEng   =    172611.4917 Temp     =       300.8639 
PotEng   =   -374431.7137 E_bond   =     20741.9430 E_angle  =     88218.6633 
E_dihed  =     42235.7884 E_impro  =      1778.3547 E_vdwl   =    -16808.5149 
E_coul   =   1666672.4868 E_long   =  -2177270.4352 Press    =      -100.4488 
Volume   =   2468334.5952 
---------------- Step     5350 ----- CPU =   2821.7878 (sec) ----------------
TotEng   =   -202239.4870 KinEng   =    172106.4439 Temp     =       299.9836 
PotEng   =   -374345.9309 E_bond   =     20628.2281 E_angle  =     88570.9811 
E_dihed  =     42046.2037 E_impro  =      1833.9686 E_vdwl   =    -17074.1048 
E_coul   =   1666933.8319 E_long   =  -2177285.0394 Press    =       -91.3749 
Volume   =   2468512.2540 
---------------- Step     5400 ----- CPU =   2848.2413 (sec) ----------------
TotEng   =   -202546.7007 KinEng   =    171376.1351 Temp     =       298.7107 
PotEng   =   -373922.8359 E_bond   =     20704.6707 E_angle  =     88667.6157 
E_dihed  =     41860.4311 E_impro  =      1731.2957 E_vdwl   =    -16430.5802 
E_coul   =   1666784.8356 E_long   =  -2177241.1044 Press    =       -65.0807 
Volume   =   2468701.0364 
---------------- Step     5450 ----- CPU =   2874.6697 (sec) ----------------
TotEng   =   -202359.5587 KinEng   =    171661.7218 Temp     =       299.2085 
PotEng   =   -374021.2805 E_bond   =     20532.4121 E_angle  =     88475.8320 
E_dihed  =     42160.6656 E_impro  =      1761.5123 E_vdwl   =    -16373.9895 
E_coul   =   1666698.9484 E_long   =  -2177276.6615 Press    =       158.9727 
Volume   =   2469132.0963 
---------------- Step     5500 ----- CPU =   2901.0695 (sec) ----------------
TotEng   =   -201661.4356 KinEng   =    172248.2110 Temp     =       300.2307 
PotEng   =   -373909.6466 E_bond   =     20794.5312 E_angle  =     88665.8330 
E_dihed  =     42210.8613 E_impro  =      1776.6435 E_vdwl   =    -17048.9157 
E_coul   =   1666951.4666 E_long   =  -2177260.0665 Press    =      -142.5854 
Volume   =   2469815.8925 
---------------- Step     5550 ----- CPU =   2927.4284 (sec) ----------------
TotEng   =   -201176.5683 KinEng   =    172162.3137 Temp     =       300.0810 
PotEng   =   -373338.8820 E_bond   =     20563.8273 E_angle  =     88995.6467 
E_dihed  =     42199.0121 E_impro  =      1814.8617 E_vdwl   =    -16752.4621 
E_coul   =   1667071.7818 E_long   =  -2177231.5495 Press    =       -85.1420 
Volume   =   2470100.3619 
---------------- Step     5600 ----- CPU =   2953.8801 (sec) ----------------
TotEng   =   -201080.0142 KinEng   =    172464.1951 Temp     =       300.6072 
PotEng   =   -373544.2093 E_bond   =     20667.3833 E_angle  =     88840.3390 
E_dihed  =     42155.2773 E_impro  =      1851.1766 E_vdwl   =    -16844.8470 
E_coul   =   1667049.3196 E_long   =  -2177262.8581 Press    =      -105.5287 
Volume   =   2469936.3022 
---------------- Step     5650 ----- CPU =   2980.2777 (sec) ----------------
TotEng   =   -201455.4645 KinEng   =    172799.5934 Temp     =       301.1918 
PotEng   =   -374255.0579 E_bond   =     20605.2100 E_angle  =     88570.7104 
E_dihed  =     41951.5633 E_impro  =      1760.4114 E_vdwl   =    -16626.6252 
E_coul   =   1666752.0062 E_long   =  -2177268.3340 Press    =      -106.2646 
Volume   =   2469822.6275 
---------------- Step     5700 ----- CPU =   3006.6503 (sec) ----------------
TotEng   =   -202139.8963 KinEng   =    171739.3967 Temp     =       299.3438 
PotEng   =   -373879.2930 E_bond   =     20554.3248 E_angle  =     88636.2366 
E_dihed  =     42203.0072 E_impro  =      1774.2364 E_vdwl   =    -16895.8854 
E_coul   =   1667132.3762 E_long   =  -2177283.5889 Press    =       108.1851 
Volume   =   2469386.4895 
---------------- Step     5750 ----- CPU =   3033.0680 (sec) ----------------
TotEng   =   -202330.8482 KinEng   =    171681.9751 Temp     =       299.2438 
PotEng   =   -374012.8234 E_bond   =     20685.8417 E_angle  =     88666.4435 
E_dihed  =     42159.3827 E_impro  =      1856.5763 E_vdwl   =    -16824.7649 
E_coul   =   1666727.7635 E_long   =  -2177284.0663 Press    =       -84.6873 
Volume   =   2468801.9111 
---------------- Step     5800 ----- CPU =   3059.4744 (sec) ----------------
TotEng   =   -201938.0551 KinEng   =    172121.9041 Temp     =       300.0106 
PotEng   =   -374059.9592 E_bond   =     20748.1500 E_angle  =     88624.7811 
E_dihed  =     42176.9596 E_impro  =      1800.6192 E_vdwl   =    -16573.6227 
E_coul   =   1666421.1583 E_long   =  -2177258.0047 Press    =       -68.3200 
Volume   =   2467963.0830 
---------------- Step     5850 ----- CPU =   3085.8786 (sec) ----------------
TotEng   =   -201549.5316 KinEng   =    172319.8980 Temp     =       300.3557 
PotEng   =   -373869.4296 E_bond   =     20642.0923 E_angle  =     88812.4158 
E_dihed  =     42226.3418 E_impro  =      1797.8324 E_vdwl   =    -16795.6502 
E_coul   =   1666719.2944 E_long   =  -2177271.7562 Press    =       -36.7973 
Volume   =   2467398.7211 
---------------- Step     5900 ----- CPU =   3112.2974 (sec) ----------------
TotEng   =   -201454.1816 KinEng   =    172653.1216 Temp     =       300.9365 
PotEng   =   -374107.3032 E_bond   =     20555.7688 E_angle  =     88836.8566 
E_dihed  =     42066.1655 E_impro  =      1811.1469 E_vdwl   =    -16417.0990 
E_coul   =   1666306.4583 E_long   =  -2177266.6003 Press    =        16.6425 
Volume   =   2466982.5527 
---------------- Step     5950 ----- CPU =   3138.6938 (sec) ----------------
TotEng   =   -202056.3560 KinEng   =    172034.0376 Temp     =       299.8574 
PotEng   =   -374090.3936 E_bond   =     20756.6709 E_angle  =     88769.5064 
E_dihed  =     42167.2121 E_impro  =      1746.5048 E_vdwl   =    -16696.0710 
E_coul   =   1666433.2795 E_long   =  -2177267.4964 Press    =        73.8752 
Volume   =   2466952.8723 
---------------- Step     6000 ----- CPU =   3165.1071 (sec) ----------------
TotEng   =   -202687.8440 KinEng   =    171626.5867 Temp     =       299.1472 
PotEng   =   -374314.4307 E_bond   =     20714.1106 E_angle  =     88688.8298 
E_dihed  =     42163.0327 E_impro  =      1763.4437 E_vdwl   =    -16457.6543 
E_coul   =   1666110.6987 E_long   =  -2177296.8920 Press    =       -52.5426 
Volume   =   2467294.5094 
---------------- Step     6050 ----- CPU =   3191.0058 (sec) ----------------
TotEng   =   -202754.1448 KinEng   =    171853.9529 Temp     =       299.5435 
PotEng   =   -374608.0977 E_bond   =     20760.1977 E_angle  =     88521.4510 
E_dihed  =     42106.9399 E_impro  =      1820.9795 E_vdwl   =    -16709.0625 
E_coul   =   1666186.4472 E_long   =  -2177295.0505 Press    =         5.4067 
Volume   =   2467590.5134 
---------------- Step     6100 ----- CPU =   3217.4493 (sec) ----------------
TotEng   =   -202304.2758 KinEng   =    172231.4399 Temp     =       300.2015 
PotEng   =   -374535.7157 E_bond   =     20784.8960 E_angle  =     88650.4030 
E_dihed  =     41888.9042 E_impro  =      1765.2127 E_vdwl   =    -16345.7638 
E_coul   =   1665955.8023 E_long   =  -2177235.1701 Press    =       -33.2004 
Volume   =   2467602.8857 
---------------- Step     6150 ----- CPU =   3243.8842 (sec) ----------------
TotEng   =   -201847.0057 KinEng   =    172245.9428 Temp     =       300.2268 
PotEng   =   -374092.9485 E_bond   =     20609.1153 E_angle  =     88792.2310 
E_dihed  =     42076.0832 E_impro  =      1819.4742 E_vdwl   =    -16005.6671 
E_coul   =   1665857.1097 E_long   =  -2177241.2948 Press    =        65.3885 
Volume   =   2467612.4964 
---------------- Step     6200 ----- CPU =   3270.3463 (sec) ----------------
TotEng   =   -201884.7514 KinEng   =    172456.6699 Temp     =       300.5941 
PotEng   =   -374341.4213 E_bond   =     20551.5286 E_angle  =     88627.5280 
E_dihed  =     42006.9680 E_impro  =      1759.0282 E_vdwl   =    -16366.3970 
E_coul   =   1666335.3762 E_long   =  -2177255.4533 Press    =        68.9663 
Volume   =   2467984.7725 
---------------- Step     6250 ----- CPU =   3296.7192 (sec) ----------------
TotEng   =   -202186.4393 KinEng   =    172506.4404 Temp     =       300.6808 
PotEng   =   -374692.8797 E_bond   =     20761.7612 E_angle  =     88454.9358 
E_dihed  =     42139.5606 E_impro  =      1762.9973 E_vdwl   =    -16339.9917 
E_coul   =   1665797.0872 E_long   =  -2177269.2302 Press    =       -24.8648 
Volume   =   2468411.6360 
---------------- Step     6300 ----- CPU =   3323.1238 (sec) ----------------
TotEng   =   -202907.4472 KinEng   =    172006.3581 Temp     =       299.8092 
PotEng   =   -374913.8053 E_bond   =     20701.0713 E_angle  =     88771.4262 
E_dihed  =     41998.6167 E_impro  =      1803.5132 E_vdwl   =    -16339.4227 
E_coul   =   1665417.0501 E_long   =  -2177266.0601 Press    =        62.8321 
Volume   =   2468119.4352 
---------------- Step     6350 ----- CPU =   3349.5660 (sec) ----------------
TotEng   =   -203591.3119 KinEng   =    171771.6229 Temp     =       299.4000 
PotEng   =   -375362.9347 E_bond   =     20720.5378 E_angle  =     88023.8058 
E_dihed  =     42021.1867 E_impro  =      1789.6694 E_vdwl   =    -16356.9143 
E_coul   =   1665727.8475 E_long   =  -2177289.0676 Press    =        11.3120 
Volume   =   2467953.7211 
---------------- Step     6400 ----- CPU =   3376.0060 (sec) ----------------
TotEng   =   -203270.4279 KinEng   =    171895.2768 Temp     =       299.6155 
PotEng   =   -375165.7047 E_bond   =     20720.0738 E_angle  =     88458.4765 
E_dihed  =     42168.6868 E_impro  =      1775.4913 E_vdwl   =    -16224.2258 
E_coul   =   1665242.6256 E_long   =  -2177306.8330 Press    =       -32.0033 
Volume   =   2467812.1957 
---------------- Step     6450 ----- CPU =   3402.4519 (sec) ----------------
TotEng   =   -202489.9037 KinEng   =    171461.9843 Temp     =       298.8603 
PotEng   =   -373951.8880 E_bond   =     20763.9185 E_angle  =     89032.7299 
E_dihed  =     42097.3007 E_impro  =      1819.4083 E_vdwl   =    -16250.1947 
E_coul   =   1665869.7134 E_long   =  -2177284.7641 Press    =       -70.6576 
Volume   =   2467558.9852 
---------------- Step     6500 ----- CPU =   3428.8766 (sec) ----------------
TotEng   =   -201683.8809 KinEng   =    172954.0463 Temp     =       301.4610 
PotEng   =   -374637.9272 E_bond   =     20806.3182 E_angle  =     88831.6332 
E_dihed  =     41980.9152 E_impro  =      1779.6932 E_vdwl   =    -16216.7472 
E_coul   =   1665469.5378 E_long   =  -2177289.2775 Press    =      -106.1047 
Volume   =   2467473.7535 
---------------- Step     6550 ----- CPU =   3455.3169 (sec) ----------------
TotEng   =   -201826.8077 KinEng   =    172245.4338 Temp     =       300.2259 
PotEng   =   -374072.2414 E_bond   =     20817.0425 E_angle  =     89151.8023 
E_dihed  =     42142.6843 E_impro  =      1811.1983 E_vdwl   =    -16380.0950 
E_coul   =   1665685.0978 E_long   =  -2177299.9718 Press    =        -8.9363 
Volume   =   2467482.1557 
---------------- Step     6600 ----- CPU =   3481.7501 (sec) ----------------
TotEng   =   -202547.1993 KinEng   =    171837.7892 Temp     =       299.5153 
PotEng   =   -374384.9885 E_bond   =     20886.9274 E_angle  =     88538.2146 
E_dihed  =     42181.7280 E_impro  =      1768.9989 E_vdwl   =    -16936.6618 
E_coul   =   1666436.6286 E_long   =  -2177260.8242 Press    =       -91.6103 
Volume   =   2467304.0693 
---------------- Step     6650 ----- CPU =   3508.1654 (sec) ----------------
TotEng   =   -202887.1060 KinEng   =    171903.2382 Temp     =       299.6294 
PotEng   =   -374790.3442 E_bond   =     20804.8089 E_angle  =     88555.9682 
E_dihed  =     42008.0818 E_impro  =      1786.7903 E_vdwl   =    -16724.2916 
E_coul   =   1666062.7501 E_long   =  -2177284.4519 Press    =        39.7244 
Volume   =   2466559.7633 
---------------- Step     6700 ----- CPU =   3534.6259 (sec) ----------------
TotEng   =   -202572.6708 KinEng   =    171864.2299 Temp     =       299.5614 
PotEng   =   -374436.9007 E_bond   =     20751.2980 E_angle  =     88947.9565 
E_dihed  =     42287.4154 E_impro  =      1803.7060 E_vdwl   =    -17161.7964 
E_coul   =   1666234.7764 E_long   =  -2177300.2566 Press    =      -178.9643 
Volume   =   2465603.2067 
---------------- Step     6750 ----- CPU =   3561.0592 (sec) ----------------
TotEng   =   -201939.2474 KinEng   =    172698.6680 Temp     =       301.0159 
PotEng   =   -374637.9154 E_bond   =     20779.4713 E_angle  =     88511.5814 
E_dihed  =     42210.5872 E_impro  =      1844.6046 E_vdwl   =    -16186.4532 
E_coul   =   1665503.5093 E_long   =  -2177301.2158 Press    =        65.6128 
Volume   =   2464793.1260 
---------------- Step     6800 ----- CPU =   3587.4873 (sec) ----------------
TotEng   =   -201887.5776 KinEng   =    172432.9531 Temp     =       300.5527 
PotEng   =   -374320.5307 E_bond   =     20881.5003 E_angle  =     88764.8761 
E_dihed  =     42130.3078 E_impro  =      1798.7706 E_vdwl   =    -16386.3885 
E_coul   =   1665772.0365 E_long   =  -2177281.6336 Press    =        42.4345 
Volume   =   2464022.4526 
---------------- Step     6850 ----- CPU =   3613.9354 (sec) ----------------
TotEng   =   -202617.4175 KinEng   =    171745.3171 Temp     =       299.3542 
PotEng   =   -374362.7346 E_bond   =     20920.5868 E_angle  =     88928.8437 
E_dihed  =     42058.2256 E_impro  =      1791.5015 E_vdwl   =    -16438.8840 
E_coul   =   1665711.7708 E_long   =  -2177334.7790 Press    =        57.7451 
Volume   =   2463567.0295 
---------------- Step     6900 ----- CPU =   3640.3743 (sec) ----------------
TotEng   =   -203409.2561 KinEng   =    171777.1818 Temp     =       299.4097 
PotEng   =   -375186.4379 E_bond   =     20644.4367 E_angle  =     88564.0162 
E_dihed  =     41792.8223 E_impro  =      1852.6210 E_vdwl   =    -16699.0989 
E_coul   =   1665987.6606 E_long   =  -2177328.8959 Press    =        51.7572 
Volume   =   2463274.0943 
---------------- Step     6950 ----- CPU =   3666.8523 (sec) ----------------
TotEng   =   -203672.7052 KinEng   =    171765.4376 Temp     =       299.3892 
PotEng   =   -375438.1428 E_bond   =     20499.8877 E_angle  =     88537.1860 
E_dihed  =     42191.8782 E_impro  =      1803.9013 E_vdwl   =    -17205.3441 
E_coul   =   1666045.5778 E_long   =  -2177311.2298 Press    =       -83.5429 
Volume   =   2463549.9086 
---------------- Step     7000 ----- CPU =   3693.2786 (sec) ----------------
TotEng   =   -202897.9394 KinEng   =    172277.6737 Temp     =       300.2821 
PotEng   =   -375175.6131 E_bond   =     20670.4955 E_angle  =     88735.7502 
E_dihed  =     42226.5231 E_impro  =      1770.7008 E_vdwl   =    -16922.3654 
E_coul   =   1665642.8741 E_long   =  -2177299.5914 Press    =      -110.8021 
Volume   =   2463987.3034 
---------------- Step     7050 ----- CPU =   3720.2493 (sec) ----------------
TotEng   =   -201898.7817 KinEng   =    172591.8552 Temp     =       300.8297 
PotEng   =   -374490.6369 E_bond   =     20617.4530 E_angle  =     88801.1054 
E_dihed  =     42211.4880 E_impro  =      1778.4564 E_vdwl   =    -16693.3293 
E_coul   =   1666078.0891 E_long   =  -2177283.8995 Press    =       -33.6887 
Volume   =   2464479.8926 
---------------- Step     7100 ----- CPU =   3746.1835 (sec) ----------------
TotEng   =   -201426.5152 KinEng   =    172619.8120 Temp     =       300.8784 
PotEng   =   -374046.3272 E_bond   =     20733.7456 E_angle  =     89044.6341 
E_dihed  =     42144.9637 E_impro  =      1827.0490 E_vdwl   =    -16358.0205 
E_coul   =   1665842.9265 E_long   =  -2177281.6255 Press    =       -76.0216 
Volume   =   2465271.1909 
---------------- Step     7150 ----- CPU =   3773.1576 (sec) ----------------
TotEng   =   -201920.4427 KinEng   =    172104.4165 Temp     =       299.9801 
PotEng   =   -374024.8591 E_bond   =     20651.8323 E_angle  =     89095.5727 
E_dihed  =     42391.8185 E_impro  =      1775.5897 E_vdwl   =    -16788.6165 
E_coul   =   1666139.9892 E_long   =  -2177291.0450 Press    =      -119.9182 
Volume   =   2465996.9950 
---------------- Step     7200 ----- CPU =   3799.5888 (sec) ----------------
TotEng   =   -202610.3873 KinEng   =    171910.6374 Temp     =       299.6423 
PotEng   =   -374521.0247 E_bond   =     20698.5231 E_angle  =     88733.6772 
E_dihed  =     42165.9185 E_impro  =      1811.0724 E_vdwl   =    -16885.6489 
E_coul   =   1666252.4978 E_long   =  -2177297.0647 Press    =      -159.6417 
Volume   =   2466299.6587 
---------------- Step     7250 ----- CPU =   3825.9897 (sec) ----------------
TotEng   =   -203074.0689 KinEng   =    171690.5070 Temp     =       299.2586 
PotEng   =   -374764.5759 E_bond   =     20717.5629 E_angle  =     88640.9454 
E_dihed  =     42123.8204 E_impro  =      1726.9753 E_vdwl   =    -16581.0338 
E_coul   =   1665905.8933 E_long   =  -2177298.7393 Press    =       -25.3197 
Volume   =   2466441.9721 
---------------- Step     7300 ----- CPU =   3852.3925 (sec) ----------------
TotEng   =   -203028.9122 KinEng   =    171412.8364 Temp     =       298.7746 
PotEng   =   -374441.7486 E_bond   =     20532.7861 E_angle  =     88797.0784 
E_dihed  =     42247.2997 E_impro  =      1768.7881 E_vdwl   =    -16678.0470 
E_coul   =   1666208.9556 E_long   =  -2177318.6094 Press    =       135.0004 
Volume   =   2466508.7017 
---------------- Step     7350 ----- CPU =   3878.8015 (sec) ----------------
TotEng   =   -202567.6529 KinEng   =    171733.4712 Temp     =       299.3335 
PotEng   =   -374301.1241 E_bond   =     20659.6841 E_angle  =     89075.7663 
E_dihed  =     42065.7901 E_impro  =      1772.5824 E_vdwl   =    -16201.7645 
E_coul   =   1665577.4733 E_long   =  -2177250.6558 Press    =       -39.6407 
Volume   =   2466225.5353 
---------------- Step     7400 ----- CPU =   3905.2279 (sec) ----------------
TotEng   =   -201923.2868 KinEng   =    172305.4917 Temp     =       300.3306 
PotEng   =   -374228.7785 E_bond   =     20853.8599 E_angle  =     88935.6864 
E_dihed  =     42213.1640 E_impro  =      1815.3764 E_vdwl   =    -16409.0984 
E_coul   =   1665638.5615 E_long   =  -2177276.3282 Press    =      -131.1480 
Volume   =   2466110.0853 
---------------- Step     7450 ----- CPU =   3931.6486 (sec) ----------------
TotEng   =   -201828.6284 KinEng   =    172570.6365 Temp     =       300.7927 
PotEng   =   -374399.2649 E_bond   =     20685.1352 E_angle  =     89070.5525 
E_dihed  =     42151.1361 E_impro  =      1814.3481 E_vdwl   =    -15937.7120 
E_coul   =   1665130.7343 E_long   =  -2177313.4590 Press    =        42.6453 
Volume   =   2465749.7745 
---------------- Step     7500 ----- CPU =   3958.0789 (sec) ----------------
TotEng   =   -202412.5196 KinEng   =    171857.0272 Temp     =       299.5489 
PotEng   =   -374269.5468 E_bond   =     20677.9686 E_angle  =     89104.6109 
E_dihed  =     42111.9911 E_impro  =      1791.1181 E_vdwl   =    -16705.5915 
E_coul   =   1666005.6120 E_long   =  -2177255.2561 Press    =      -105.5728 
Volume   =   2465865.8672 
---------------- Step     7550 ----- CPU =   3984.4935 (sec) ----------------
TotEng   =   -203019.7268 KinEng   =    171638.9713 Temp     =       299.1688 
PotEng   =   -374658.6982 E_bond   =     20752.4336 E_angle  =     88504.4621 
E_dihed  =     42135.9760 E_impro  =      1809.3102 E_vdwl   =    -16142.4574 
E_coul   =   1665576.8135 E_long   =  -2177295.2363 Press    =        61.7592 
Volume   =   2465647.8633 
---------------- Step     7600 ----- CPU =   4010.9333 (sec) ----------------
TotEng   =   -203050.3096 KinEng   =    171948.4588 Temp     =       299.7082 
PotEng   =   -374998.7683 E_bond   =     20828.5869 E_angle  =     88587.0973 
E_dihed  =     41981.1901 E_impro  =      1790.7881 E_vdwl   =    -15943.4562 
E_coul   =   1664988.0946 E_long   =  -2177231.0691 Press    =        35.4206 
Volume   =   2465630.6812 
---------------- Step     7650 ----- CPU =   4037.3969 (sec) ----------------
TotEng   =   -202644.6868 KinEng   =    172345.5858 Temp     =       300.4004 
PotEng   =   -374990.2726 E_bond   =     20534.4876 E_angle  =     88665.8805 
E_dihed  =     41886.9885 E_impro  =      1793.8386 E_vdwl   =    -16327.2373 
E_coul   =   1665709.2274 E_long   =  -2177253.4579 Press    =       113.6924 
Volume   =   2465679.2301 
---------------- Step     7700 ----- CPU =   4063.8346 (sec) ----------------
TotEng   =   -202144.4032 KinEng   =    172477.6482 Temp     =       300.6306 
PotEng   =   -374622.0514 E_bond   =     20606.2648 E_angle  =     88868.0478 
E_dihed  =     42065.7750 E_impro  =      1780.7926 E_vdwl   =    -16864.7628 
E_coul   =   1666199.3833 E_long   =  -2177277.5521 Press    =       -47.7280 
Volume   =   2466044.1044 
---------------- Step     7750 ----- CPU =   4090.2847 (sec) ----------------
TotEng   =   -201891.9529 KinEng   =    172363.6461 Temp     =       300.4319 
PotEng   =   -374255.5990 E_bond   =     20758.7853 E_angle  =     88953.1060 
E_dihed  =     42102.0177 E_impro  =      1747.1563 E_vdwl   =    -16588.6177 
E_coul   =   1666057.1550 E_long   =  -2177285.2017 Press    =      -167.1843 
Volume   =   2466163.5521 
---------------- Step     7800 ----- CPU =   4116.7136 (sec) ----------------
TotEng   =   -201925.2980 KinEng   =    172031.0365 Temp     =       299.8522 
PotEng   =   -373956.3345 E_bond   =     20792.0485 E_angle  =     88874.4985 
E_dihed  =     42277.0948 E_impro  =      1803.2587 E_vdwl   =    -16835.5600 
E_coul   =   1666417.3235 E_long   =  -2177284.9985 Press    =      -110.5129 
Volume   =   2466091.2643 
---------------- Step     7850 ----- CPU =   4143.1717 (sec) ----------------
TotEng   =   -202232.8438 KinEng   =    172344.9283 Temp     =       300.3993 
PotEng   =   -374577.7720 E_bond   =     20660.4425 E_angle  =     88910.4044 
E_dihed  =     41959.1637 E_impro  =      1787.6609 E_vdwl   =    -16593.0858 
E_coul   =   1665963.6516 E_long   =  -2177266.0093 Press    =        54.3583 
Volume   =   2465596.2294 
---------------- Step     7900 ----- CPU =   4170.0857 (sec) ----------------
TotEng   =   -202418.4233 KinEng   =    172059.3848 Temp     =       299.9016 
PotEng   =   -374477.8081 E_bond   =     20624.7974 E_angle  =     88821.8425 
E_dihed  =     41900.3047 E_impro  =      1778.1393 E_vdwl   =    -16653.3249 
E_coul   =   1666347.2894 E_long   =  -2177296.8566 Press    =       -27.6289 
Volume   =   2465418.5666 
---------------- Step     7950 ----- CPU =   4196.0371 (sec) ----------------
TotEng   =   -202572.9744 KinEng   =    172209.3005 Temp     =       300.1629 
PotEng   =   -374782.2749 E_bond   =     20747.5464 E_angle  =     88719.7754 
E_dihed  =     42065.7655 E_impro  =      1805.6325 E_vdwl   =    -16497.9085 
E_coul   =   1665623.4374 E_long   =  -2177246.5236 Press    =      -100.9497 
Volume   =   2465340.8845 
---------------- Step     8000 ----- CPU =   4222.9927 (sec) ----------------
TotEng   =   -202806.0051 KinEng   =    171564.5151 Temp     =       299.0390 
PotEng   =   -374370.5203 E_bond   =     20727.4296 E_angle  =     89077.3766 
E_dihed  =     41871.4578 E_impro  =      1854.1499 E_vdwl   =    -16274.8358 
E_coul   =   1665678.4991 E_long   =  -2177304.5973 Press    =       -63.3206 
Volume   =   2465341.4500 
---------------- Step     8050 ----- CPU =   4249.4478 (sec) ----------------
TotEng   =   -202638.5629 KinEng   =    171935.6787 Temp     =       299.6860 
PotEng   =   -374574.2417 E_bond   =     20673.4771 E_angle  =     88492.5284 
E_dihed  =     42066.0860 E_impro  =      1814.2290 E_vdwl   =    -16626.9388 
E_coul   =   1666279.0728 E_long   =  -2177272.6962 Press    =        33.3781 
Volume   =   2465600.0907 
---------------- Step     8100 ----- CPU =   4275.8949 (sec) ----------------
TotEng   =   -202075.9400 KinEng   =    172572.6755 Temp     =       300.7963 
PotEng   =   -374648.6155 E_bond   =     20606.7664 E_angle  =     88864.0943 
E_dihed  =     42042.8326 E_impro  =      1780.7686 E_vdwl   =    -16406.8970 
E_coul   =   1665683.4033 E_long   =  -2177219.5839 Press    =       -25.5675 
Volume   =   2465971.3805 
---------------- Step     8150 ----- CPU =   4302.2970 (sec) ----------------
TotEng   =   -201961.6251 KinEng   =    172494.7088 Temp     =       300.6604 
PotEng   =   -374456.3339 E_bond   =     20701.9813 E_angle  =     89220.3278 
E_dihed  =     42035.8489 E_impro  =      1791.7723 E_vdwl   =    -16828.8265 
E_coul   =   1665923.5535 E_long   =  -2177300.9912 Press    =        25.7708 
Volume   =   2466122.1781 
---------------- Step     8200 ----- CPU =   4328.7541 (sec) ----------------
TotEng   =   -202310.4372 KinEng   =    171659.3889 Temp     =       299.2044 
PotEng   =   -373969.8261 E_bond   =     20787.7428 E_angle  =     89154.2284 
E_dihed  =     41989.0880 E_impro  =      1785.7453 E_vdwl   =    -16795.8449 
E_coul   =   1666340.6002 E_long   =  -2177231.3859 Press    =      -120.4022 
Volume   =   2466344.7972 
---------------- Step     8250 ----- CPU =   4355.1853 (sec) ----------------
TotEng   =   -202427.9537 KinEng   =    171848.0534 Temp     =       299.5332 
PotEng   =   -374276.0071 E_bond   =     20562.5927 E_angle  =     89192.1361 
E_dihed  =     42079.4746 E_impro  =      1841.7960 E_vdwl   =    -17290.6516 
E_coul   =   1666606.0899 E_long   =  -2177267.4448 Press    =       -30.9008 
Volume   =   2466230.7704 
---------------- Step     8300 ----- CPU =   4381.6185 (sec) ----------------
TotEng   =   -202267.7574 KinEng   =    172412.2263 Temp     =       300.5166 
PotEng   =   -374679.9837 E_bond   =     20701.9672 E_angle  =     88980.5808 
E_dihed  =     42013.2241 E_impro  =      1835.4672 E_vdwl   =    -17242.6730 
E_coul   =   1666297.8253 E_long   =  -2177266.3754 Press    =      -135.8742 
Volume   =   2466410.8351 
---------------- Step     8350 ----- CPU =   4408.0144 (sec) ----------------
TotEng   =   -202372.6723 KinEng   =    171995.1643 Temp     =       299.7896 
PotEng   =   -374367.8367 E_bond   =     20759.8375 E_angle  =     89017.8732 
E_dihed  =     42041.5929 E_impro  =      1823.8422 E_vdwl   =    -16542.7617 
E_coul   =   1665792.4647 E_long   =  -2177260.6855 Press    =        -3.6164 
Volume   =   2466535.9753 
---------------- Step     8400 ----- CPU =   4434.4613 (sec) ----------------
TotEng   =   -202518.2353 KinEng   =    172071.0730 Temp     =       299.9220 
PotEng   =   -374589.3083 E_bond   =     20757.8327 E_angle  =     88927.1425 
E_dihed  =     41991.9656 E_impro  =      1819.7996 E_vdwl   =    -16845.2089 
E_coul   =   1666046.4062 E_long   =  -2177287.2460 Press    =      -143.8205 
Volume   =   2466506.5425 
---------------- Step     8450 ----- CPU =   4460.9137 (sec) ----------------
TotEng   =   -202588.4360 KinEng   =    171829.7364 Temp     =       299.5013 
PotEng   =   -374418.1724 E_bond   =     20752.8114 E_angle  =     88849.1885 
E_dihed  =     42134.5978 E_impro  =      1836.7011 E_vdwl   =    -16730.5087 
E_coul   =   1666026.7461 E_long   =  -2177287.7086 Press    =       -25.0085 
Volume   =   2465747.2919 
---------------- Step     8500 ----- CPU =   4487.3650 (sec) ----------------
TotEng   =   -202706.6818 KinEng   =    172334.9189 Temp     =       300.3818 
PotEng   =   -375041.6007 E_bond   =     20709.2696 E_angle  =     88715.6500 
E_dihed  =     41956.8257 E_impro  =      1816.8950 E_vdwl   =    -16141.7194 
E_coul   =   1665212.1481 E_long   =  -2177310.6698 Press    =        -0.2248 
Volume   =   2464953.8817 
---------------- Step     8550 ----- CPU =   4513.7843 (sec) ----------------
TotEng   =   -202780.4336 KinEng   =    171811.8380 Temp     =       299.4701 
PotEng   =   -374592.2716 E_bond   =     20680.3877 E_angle  =     88909.1885 
E_dihed  =     42176.9683 E_impro  =      1853.1776 E_vdwl   =    -16820.8811 
E_coul   =   1665922.4372 E_long   =  -2177313.5498 Press    =        14.7294 
Volume   =   2464428.6764 
---------------- Step     8600 ----- CPU =   4540.1825 (sec) ----------------
TotEng   =   -202861.8926 KinEng   =    172199.1109 Temp     =       300.1451 
PotEng   =   -375061.0034 E_bond   =     20792.8953 E_angle  =     88685.2949 
E_dihed  =     41918.8493 E_impro  =      1771.8012 E_vdwl   =    -16293.0715 
E_coul   =   1665321.9580 E_long   =  -2177258.7307 Press    =        60.9111 
Volume   =   2464201.3875 
---------------- Step     8650 ----- CPU =   4566.6414 (sec) ----------------
TotEng   =   -202956.9246 KinEng   =    172108.7307 Temp     =       299.9876 
PotEng   =   -375065.6553 E_bond   =     20704.0215 E_angle  =     88408.1228 
E_dihed  =     42157.2238 E_impro  =      1786.0472 E_vdwl   =    -16333.8185 
E_coul   =   1665462.9702 E_long   =  -2177250.2222 Press    =       -45.4085 
Volume   =   2464065.1999 
---------------- Step     8700 ----- CPU =   4593.0959 (sec) ----------------
TotEng   =   -202974.5850 KinEng   =    172017.0240 Temp     =       299.8277 
PotEng   =   -374991.6089 E_bond   =     20506.8054 E_angle  =     88822.2428 
E_dihed  =     42024.3667 E_impro  =      1809.2663 E_vdwl   =    -16163.0414 
E_coul   =   1665299.9883 E_long   =  -2177291.2371 Press    =         5.0159 
Volume   =   2464252.1149 
---------------- Step     8750 ----- CPU =   4618.9999 (sec) ----------------
TotEng   =   -202760.9879 KinEng   =    172127.9380 Temp     =       300.0211 
PotEng   =   -374888.9259 E_bond   =     20689.9773 E_angle  =     88690.2902 
E_dihed  =     42058.0849 E_impro  =      1802.2936 E_vdwl   =    -16560.4958 
E_coul   =   1665720.1873 E_long   =  -2177289.2634 Press    =      -126.9043 
Volume   =   2464290.8900 
---------------- Step     8800 ----- CPU =   4645.9603 (sec) ----------------
TotEng   =   -202333.4765 KinEng   =    172600.9031 Temp     =       300.8455 
PotEng   =   -374934.3796 E_bond   =     20707.3342 E_angle  =     88699.9041 
E_dihed  =     42175.2198 E_impro  =      1808.5137 E_vdwl   =    -16658.7929 
E_coul   =   1665632.2500 E_long   =  -2177298.8085 Press    =        78.6365 
Volume   =   2464236.6790 
---------------- Step     8850 ----- CPU =   4672.4128 (sec) ----------------
TotEng   =   -202489.4346 KinEng   =    172119.9431 Temp     =       300.0071 
PotEng   =   -374609.3777 E_bond   =     20797.2690 E_angle  =     88447.7935 
E_dihed  =     42176.7043 E_impro  =      1801.1172 E_vdwl   =    -16107.1180 
E_coul   =   1665557.9625 E_long   =  -2177283.1061 Press    =        17.5259 
Volume   =   2464803.0799 
---------------- Step     8900 ----- CPU =   4698.8695 (sec) ----------------
TotEng   =   -202877.8793 KinEng   =    171902.1012 Temp     =       299.6274 
PotEng   =   -374779.9805 E_bond   =     20557.6590 E_angle  =     88886.8269 
E_dihed  =     42122.2727 E_impro  =      1795.2498 E_vdwl   =    -16993.4309 
E_coul   =   1666126.8700 E_long   =  -2177275.4280 Press    =      -157.0595 
Volume   =   2465891.2378 
---------------- Step     8950 ----- CPU =   4724.8030 (sec) ----------------
TotEng   =   -202877.2844 KinEng   =    171606.1008 Temp     =       299.1115 
PotEng   =   -374483.3851 E_bond   =     20642.1980 E_angle  =     88861.4871 
E_dihed  =     42254.9794 E_impro  =      1787.4451 E_vdwl   =    -16735.3633 
E_coul   =   1666052.4600 E_long   =  -2177346.5915 Press    =      -104.9833 
Volume   =   2466515.5628 
---------------- Step     9000 ----- CPU =   4751.7184 (sec) ----------------
TotEng   =   -202418.2416 KinEng   =    172510.1392 Temp     =       300.6873 
PotEng   =   -374928.3807 E_bond   =     20603.2238 E_angle  =     88814.7048 
E_dihed  =     42079.0303 E_impro  =      1777.7586 E_vdwl   =    -16540.0838 
E_coul   =   1665628.2957 E_long   =  -2177291.3101 Press    =       -26.1445 
Volume   =   2466647.8322 
---------------- Step     9050 ----- CPU =   4778.1352 (sec) ----------------
TotEng   =   -202157.4556 KinEng   =    172311.8369 Temp     =       300.3416 
PotEng   =   -374469.2926 E_bond   =     20799.6224 E_angle  =     88594.4514 
E_dihed  =     42180.4783 E_impro  =      1795.3452 E_vdwl   =    -15978.0916 
E_coul   =   1665416.4088 E_long   =  -2177277.5071 Press    =        65.0555 
Volume   =   2466720.2745 
---------------- Step     9100 ----- CPU =   4804.5811 (sec) ----------------
TotEng   =   -202201.0010 KinEng   =    172444.2664 Temp     =       300.5724 
PotEng   =   -374645.2674 E_bond   =     20507.2545 E_angle  =     88876.1327 
E_dihed  =     42106.9590 E_impro  =      1781.7588 E_vdwl   =    -16323.3957 
E_coul   =   1665680.8992 E_long   =  -2177274.8758 Press    =        58.3164 
Volume   =   2467034.1786 
---------------- Step     9150 ----- CPU =   4830.9940 (sec) ----------------
TotEng   =   -202517.5318 KinEng   =    172150.1704 Temp     =       300.0598 
PotEng   =   -374667.7022 E_bond   =     20624.5543 E_angle  =     88749.0671 
E_dihed  =     42170.1587 E_impro  =      1788.9848 E_vdwl   =    -16709.1112 
E_coul   =   1665985.9859 E_long   =  -2177277.3418 Press    =       102.0178 
Volume   =   2467128.0665 
---------------- Step     9200 ----- CPU =   4857.3926 (sec) ----------------
TotEng   =   -202771.0695 KinEng   =    171959.1097 Temp     =       299.7268 
PotEng   =   -374730.1792 E_bond   =     20820.9832 E_angle  =     88704.9682 
E_dihed  =     42090.8799 E_impro  =      1781.5344 E_vdwl   =    -16495.4460 
E_coul   =   1665639.8615 E_long   =  -2177272.9605 Press    =        -6.5882 
Volume   =   2467318.1208 
---------------- Step     9250 ----- CPU =   4883.8111 (sec) ----------------
TotEng   =   -202890.8426 KinEng   =    172163.5001 Temp     =       300.0831 
PotEng   =   -375054.3427 E_bond   =     20536.7209 E_angle  =     88653.2843 
E_dihed  =     41882.5484 E_impro  =      1844.3998 E_vdwl   =    -15935.5440 
E_coul   =   1665268.2024 E_long   =  -2177303.9545 Press    =       -18.6281 
Volume   =   2467238.4743 
---------------- Step     9300 ----- CPU =   4910.2154 (sec) ----------------
TotEng   =   -203183.0112 KinEng   =    171843.0097 Temp     =       299.5244 
PotEng   =   -375026.0209 E_bond   =     20648.3804 E_angle  =     88594.2773 
E_dihed  =     42077.8938 E_impro  =      1851.1692 E_vdwl   =    -16498.4714 
E_coul   =   1665589.3719 E_long   =  -2177288.6421 Press    =       -73.0606 
Volume   =   2467220.6918 
---------------- Step     9350 ----- CPU =   4936.6092 (sec) ----------------
TotEng   =   -203154.1530 KinEng   =    172253.8063 Temp     =       300.2405 
PotEng   =   -375407.9594 E_bond   =     20625.4583 E_angle  =     88497.8048 
E_dihed  =     42177.0567 E_impro  =      1781.0342 E_vdwl   =    -16703.9192 
E_coul   =   1665522.1099 E_long   =  -2177307.5041 Press    =        34.4337 
Volume   =   2466832.6951 
---------------- Step     9400 ----- CPU =   4963.0440 (sec) ----------------
TotEng   =   -202754.4269 KinEng   =    171880.4234 Temp     =       299.5897 
PotEng   =   -374634.8503 E_bond   =     20665.3843 E_angle  =     88813.4015 
E_dihed  =     42141.3415 E_impro  =      1833.0997 E_vdwl   =    -16602.1147 
E_coul   =   1665806.1902 E_long   =  -2177292.1528 Press    =        28.7682 
Volume   =   2466201.0687 
---------------- Step     9450 ----- CPU =   4989.4567 (sec) ----------------
TotEng   =   -202354.8795 KinEng   =    172181.9305 Temp     =       300.1152 
PotEng   =   -374536.8100 E_bond   =     20760.2864 E_angle  =     88866.3738 
E_dihed  =     42037.0788 E_impro  =      1751.7918 E_vdwl   =    -15837.9017 
E_coul   =   1665182.0414 E_long   =  -2177296.4805 Press    =        28.2776 
Volume   =   2465264.3118 
---------------- Step     9500 ----- CPU =   5015.8718 (sec) ----------------
TotEng   =   -202463.9537 KinEng   =    172556.7533 Temp     =       300.7685 
PotEng   =   -375020.7069 E_bond   =     20822.3291 E_angle  =     88773.6012 
E_dihed  =     42027.4171 E_impro  =      1808.2968 E_vdwl   =    -16726.1819 
E_coul   =   1665565.0136 E_long   =  -2177291.1828 Press    =      -101.8316 
Volume   =   2464586.6856 
---------------- Step     9550 ----- CPU =   5042.3342 (sec) ----------------
TotEng   =   -203032.5370 KinEng   =    171707.8174 Temp     =       299.2888 
PotEng   =   -374740.3543 E_bond   =     20767.8244 E_angle  =     88871.1369 
E_dihed  =     42061.0236 E_impro  =      1795.7868 E_vdwl   =    -16368.5492 
E_coul   =   1665450.9277 E_long   =  -2177318.5046 Press    =        55.9938 
Volume   =   2463821.3851 
---------------- Step     9600 ----- CPU =   5068.7788 (sec) ----------------
TotEng   =   -203443.3653 KinEng   =    171944.6555 Temp     =       299.7016 
PotEng   =   -375388.0208 E_bond   =     20640.4489 E_angle  =     88790.7393 
E_dihed  =     41975.5538 E_impro  =      1812.3163 E_vdwl   =    -16154.8668 
E_coul   =   1664836.1474 E_long   =  -2177288.3597 Press    =         2.5984 
Volume   =   2463448.9469 
---------------- Step     9650 ----- CPU =   5094.7030 (sec) ----------------
TotEng   =   -203543.8868 KinEng   =    171738.2237 Temp     =       299.3418 
PotEng   =   -375282.1105 E_bond   =     20759.3360 E_angle  =     88765.6049 
E_dihed  =     42224.4800 E_impro  =      1753.5286 E_vdwl   =    -16636.7823 
E_coul   =   1665150.5613 E_long   =  -2177298.8389 Press    =        58.2253 
Volume   =   2463323.4298 
---------------- Step     9700 ----- CPU =   5121.1654 (sec) ----------------
TotEng   =   -203029.6981 KinEng   =    172058.1848 Temp     =       299.8995 
PotEng   =   -375087.8829 E_bond   =     20773.9467 E_angle  =     88831.0058 
E_dihed  =     42180.6541 E_impro  =      1779.4016 E_vdwl   =    -16898.1155 
E_coul   =   1665549.0510 E_long   =  -2177303.8267 Press    =      -198.0856 
Volume   =   2463650.7840 
---------------- Step     9750 ----- CPU =   5147.6611 (sec) ----------------
TotEng   =   -202280.5720 KinEng   =    172339.3930 Temp     =       300.3896 
PotEng   =   -374619.9650 E_bond   =     20721.9951 E_angle  =     88856.5372 
E_dihed  =     42270.6468 E_impro  =      1799.2904 E_vdwl   =    -16597.0714 
E_coul   =   1665618.5691 E_long   =  -2177289.9322 Press    =       -35.2516 
Volume   =   2463834.4646 
---------------- Step     9800 ----- CPU =   5174.6351 (sec) ----------------
TotEng   =   -202050.4105 KinEng   =    172157.3406 Temp     =       300.0723 
PotEng   =   -374207.7511 E_bond   =     20770.9063 E_angle  =     89294.2730 
E_dihed  =     42284.6878 E_impro  =      1813.9136 E_vdwl   =    -16583.4477 
E_coul   =   1665563.6780 E_long   =  -2177351.7621 Press    =       -44.8170 
Volume   =   2464389.0697 
---------------- Step     9850 ----- CPU =   5201.1084 (sec) ----------------
TotEng   =   -202522.7800 KinEng   =    172308.6937 Temp     =       300.3361 
PotEng   =   -374831.4737 E_bond   =     20656.6449 E_angle  =     88728.4900 
E_dihed  =     42094.8083 E_impro  =      1792.9551 E_vdwl   =    -16275.0016 
E_coul   =   1665499.4624 E_long   =  -2177328.8328 Press    =       124.3832 
Volume   =   2465252.3663 
---------------- Step     9900 ----- CPU =   5227.5823 (sec) ----------------
TotEng   =   -203239.6671 KinEng   =    172046.4721 Temp     =       299.8791 
PotEng   =   -375286.1392 E_bond   =     20720.9039 E_angle  =     88410.8666 
E_dihed  =     42164.6223 E_impro  =      1772.5368 E_vdwl   =    -16359.9741 
E_coul   =   1665309.3676 E_long   =  -2177304.4624 Press    =       -30.8501 
Volume   =   2466167.4786 
---------------- Step     9950 ----- CPU =   5254.0627 (sec) ----------------
TotEng   =   -203444.5051 KinEng   =    171384.6815 Temp     =       298.7256 
PotEng   =   -374829.1866 E_bond   =     20772.0815 E_angle  =     88820.1340 
E_dihed  =     42111.5706 E_impro  =      1819.5894 E_vdwl   =    -16968.3369 
E_coul   =   1665890.8059 E_long   =  -2177275.0311 Press    =      -125.2577 
Volume   =   2467032.2797 
---------------- Step    10000 ----- CPU =   5280.4625 (sec) ----------------
TotEng   =   -202832.3801 KinEng   =    172024.7170 Temp     =       299.8412 
PotEng   =   -374857.0971 E_bond   =     20716.5263 E_angle  =     88931.7693 
E_dihed  =     42025.1976 E_impro  =      1766.8396 E_vdwl   =    -16125.8648 
E_coul   =   1665140.3184 E_long   =  -2177311.8835 Press    =       -65.3101 
Volume   =   2467066.9247 
Loop time of 5280.46 on 1 procs for 10000 steps with 256000 atoms

Performance: 0.327 ns/day, 73.340 hours/ns, 1.894 timesteps/s
100.0% CPU use with 1 MPI tasks x 1 OpenMP threads

MPI task timing breakdown:
Section |  min time  |  avg time  |  max time  |%varavg| %total
---------------------------------------------------------------
Pair    | 3494.9     | 3494.9     | 3494.9     |   0.0 | 66.19
Bond    | 213.16     | 213.16     | 213.16     |   0.0 |  4.04
Kspace  | 502.75     | 502.75     | 502.75     |   0.0 |  9.52
Neigh   | 474.68     | 474.68     | 474.68     |   0.0 |  8.99
Comm    | 142.05     | 142.05     | 142.05     |   0.0 |  2.69
Output  | 0.086265   | 0.086265   | 0.086265   |   0.0 |  0.00
Modify  | 440.71     | 440.71     | 440.71     |   0.0 |  8.35
Other   |            | 12.14      |            |       |  0.23

Nlocal:         256000 ave      256000 max      256000 min
Histogram: 1 0 0 0 0 0 0 0 0 0
Nghost:         163731 ave      163731 max      163731 min
Histogram: 1 0 0 0 0 0 0 0 0 0
Neighs:    9.61385e+07 ave 9.61385e+07 max 9.61385e+07 min
Histogram: 1 0 0 0 0 0 0 0 0 0

Total # of neighbors = 96138484
Ave neighs/atom = 375.54095
Ave special neighs/atom = 7.431875
Neighbor list builds = 1205
Dangerous builds = 0
Total wall time: 1:28:02
Intel(R) VTune(TM) Profiler 2022.2.0 collection completed successfully. Use the "aps --report /home/ubuntu/lammps/bench/aps_result_20220703" command to generate textual and HTML reports for the profiling session.
