LAMMPS (7 Jan 2022)
  using 1 OpenMP thread(s) per MPI task
New timer settings: style=full  mode=nosync  timeout=off
Reading data file ...
  orthogonal box = (-27.5 -38.5 -36.3646) to (27.5 38.5 36.3615)
  1 by 2 by 1 MPI processor grid
  reading atoms ...
  32000 atoms
  reading velocities ...
  32000 velocities
  scanning bonds ...
  4 = max bonds/atom
  scanning angles ...
  8 = max angles/atom
  scanning dihedrals ...
  18 = max dihedrals/atom
  scanning impropers ...
  2 = max impropers/atom
  reading bonds ...
  27723 bonds
  reading angles ...
  40467 angles
  reading dihedrals ...
  56829 dihedrals
  reading impropers ...
  1034 impropers
Finding 1-2 1-3 1-4 neighbors ...
  special bond factors lj:    0        0        0       
  special bond factors coul:  0        0        0       
     4 = max # of 1-2 neighbors
    12 = max # of 1-3 neighbors
    24 = max # of 1-4 neighbors
    26 = max # of special neighbors
  special bonds CPU = 0.009 seconds
  read_data CPU = 0.174 seconds
Replicating atoms ...
  orthogonal box = (-27.5 -38.5 -36.3646) to (137.5 192.5 181.8137)
  1 by 2 by 1 MPI processor grid
  864000 atoms
  748521 bonds
  1092609 angles
  1534383 dihedrals
  27918 impropers
Finding 1-2 1-3 1-4 neighbors ...
  special bond factors lj:    0        0        0       
  special bond factors coul:  0        0        0       
     4 = max # of 1-2 neighbors
    12 = max # of 1-3 neighbors
    24 = max # of 1-4 neighbors
    26 = max # of special neighbors
  special bonds CPU = 0.228 seconds
  replicate CPU = 0.407 seconds
Finding SHAKE clusters ...
   43659 = # of size 2 clusters
   98091 = # of size 3 clusters
   20169 = # of size 4 clusters
  114291 = # of frozen angles
  find clusters CPU = 0.101 seconds
PPPM initialization ...
  using 12-bit tables for long-range coulomb (../kspace.cpp:340)
  G vector (1/distance) = 0.25235202
  grid = 72 90 90
  stencil order = 7
  estimated absolute RMS force accuracy = 0.029803316
  estimated relative force accuracy = 8.9751802e-05
  using single precision MKL FFT
  3d grid and FFT values/proc = 398476 291600
----------------------------------------------------------
Using INTEL Package without Coprocessor.
Compiler: Intel Classic C++ 20.21.5 / Intel(R) C++ g++ 9.3 mode
SIMD compiler directives: Enabled
Precision: mixed
----------------------------------------------------------
  generated 2278 of 2278 mixed pair_coeff terms from arithmetic mixing rule
Neighbor list info ...
  update every 1 steps, delay 5 steps, check yes
  max neighbors/atom: 2000, page size: 100000
  master list distance cutoff = 12
  ghost atom cutoff = 12
  binsize = 6, bins = 28 39 37
  1 neighbor lists, perpetual/occasional/extra = 1 0 0
  (1) pair lj/charmm/coul/long/intel, perpetual
      attributes: half, newton on, intel
      pair build: half/bin/newton/intel
      stencil: half/bin/3d
      bin: intel
Setting up Verlet run ...
  Unit style    : real
  Current step  : 0
  Time step     : 2
Per MPI rank memory allocation (min/avg/max) = 4473 | 4480 | 4487 Mbytes
---------------- Step        0 ----- CPU =      0.0000 (sec) ----------------
TotEng   =   -684670.9758 KinEng   =    579010.4447 Temp     =       299.0277 
PotEng   =  -1263681.4205 E_bond   =     68525.6859 E_angle  =    294877.1223 
E_dihed  =    140718.2350 E_impro  =      5764.8965 E_vdwl   =    -62312.3838 
E_coul   =   5692538.4980 E_long   =  -7403793.4743 Press    =      -148.6879 
Volume   =   8315865.9045 
---------------- Step       50 ----- CPU =     43.8563 (sec) ----------------
TotEng   =   -683945.5353 KinEng   =    580526.1281 Temp     =       299.8105 
PotEng   =  -1264471.6634 E_bond   =     66737.4942 E_angle  =    292591.4294 
E_dihed  =    141470.6655 E_impro  =      6132.4703 E_vdwl   =    -53811.2386 
E_coul   =   5686392.6762 E_long   =  -7403985.1604 Press    =       238.9121 
Volume   =   8316862.5490 
---------------- Step      100 ----- CPU =     88.7252 (sec) ----------------
TotEng   =   -682827.8623 KinEng   =    582915.2744 Temp     =       301.0443 
PotEng   =  -1265743.1367 E_bond   =     69335.4546 E_angle  =    291121.2236 
E_dihed  =    140366.2518 E_impro  =      5852.7461 E_vdwl   =    -51271.2070 
E_coul   =   5682697.0800 E_long   =  -7403844.6859 Press    =        14.5714 
Volume   =   8319656.0490 
Loop time of 88.7253 on 2 procs for 100 steps with 864000 atoms

Performance: 0.195 ns/day, 123.230 hours/ns, 1.127 timesteps/s
99.9% CPU use with 2 MPI tasks x 1 OpenMP threads

MPI task timing breakdown:
Section |  min time  |  avg time  |  max time  |%varavg|  %CPU | %total
-----------------------------------------------------------------------
Pair    | 59.369     | 59.406     | 59.444     |   0.5 | 100.0 | 66.96
Bond    | 3.4986     | 3.5378     | 3.577      |   2.1 |  99.9 |  3.99
Kspace  | 8.9962     | 9.0743     | 9.1525     |   2.6 |  99.6 | 10.23
Neigh   | 6.9787     | 6.9792     | 6.9797     |   0.0 |  99.9 |  7.87
Comm    | 2.7678     | 2.7711     | 2.7744     |   0.2 |  98.8 |  3.12
Output  | 0.0013914  | 0.0014112  | 0.0014311  |   0.1 | 100.0 |  0.00
Modify  | 6.728      | 6.7354     | 6.7428     |   0.3 |  99.9 |  7.59
Other   |            | 0.2196     |            |       |       |  0.25

Nlocal:         432000 ave      432918 max      431082 min
Histogram: 1 0 0 0 0 0 0 0 0 1
Nghost:         230766 ave      231317 max      230216 min
Histogram: 1 0 0 0 0 0 0 0 0 1
Neighs:    1.62379e+08 ave 1.62957e+08 max 1.61801e+08 min
Histogram: 1 0 0 0 0 0 0 0 0 1

Total # of neighbors = 3.2475854e+08
Ave neighs/atom = 375.87794
Ave special neighs/atom = 7.431875
Neighbor list builds = 11
Dangerous builds = 0
Total wall time: 0:01:31
Intel(R) VTune(TM) Profiler 2022.2.0 collection completed successfully. Use the "aps --report /home/ubuntu/lammps/bench/aps_result_20220421" command to generate textual and HTML reports for the profiling session.
