LAMMPS (7 Jan 2022)
  using 1 OpenMP thread(s) per MPI task
Reading data file ...
  orthogonal box = (-27.5 -38.5 -36.3646) to (27.5 38.5 36.3615)
  4 by 4 by 4 MPI processor grid
  reading atoms ...
  32000 atoms
  reading velocities ...
  32000 velocities
  scanning bonds ...
  4 = max bonds/atom
  scanning angles ...
  8 = max angles/atom
  scanning dihedrals ...
  18 = max dihedrals/atom
  scanning impropers ...
  2 = max impropers/atom
  reading bonds ...
  27723 bonds
  reading angles ...
  40467 angles
  reading dihedrals ...
  56829 dihedrals
  reading impropers ...
  1034 impropers
Finding 1-2 1-3 1-4 neighbors ...
  special bond factors lj:    0        0        0       
  special bond factors coul:  0        0        0       
     4 = max # of 1-2 neighbors
    12 = max # of 1-3 neighbors
    24 = max # of 1-4 neighbors
    26 = max # of special neighbors
  special bonds CPU = 0.017 seconds
  read_data CPU = 0.245 seconds
Replicating atoms ...
  orthogonal box = (-27.5 -38.5 -36.3646) to (82.5 115.5 109.0876)
  4 by 4 by 4 MPI processor grid
  256000 atoms
  221784 bonds
  323736 angles
  454632 dihedrals
  8272 impropers
Finding 1-2 1-3 1-4 neighbors ...
  special bond factors lj:    0        0        0       
  special bond factors coul:  0        0        0       
     4 = max # of 1-2 neighbors
    12 = max # of 1-3 neighbors
    24 = max # of 1-4 neighbors
    26 = max # of special neighbors
  special bonds CPU = 0.021 seconds
  replicate CPU = 0.043 seconds
Finding SHAKE clusters ...
   12936 = # of size 2 clusters
   29064 = # of size 3 clusters
    5976 = # of size 4 clusters
   33864 = # of frozen angles
  find clusters CPU = 0.005 seconds
PPPM initialization ...
  using 12-bit tables for long-range coulomb (../kspace.cpp:340)
  G vector (1/distance) = 0.25045586
  grid = 45 60 60
  stencil order = 7
  estimated absolute RMS force accuracy = 0.032785255
  estimated relative force accuracy = 9.8731821e-05
  using single precision MKL FFT
  3d grid and FFT values/proc = 9196 2880
----------------------------------------------------------
Using INTEL Package without Coprocessor.
Compiler: Intel Classic C++ 20.21.5 / Intel(R) C++ g++ 9.3 mode
SIMD compiler directives: Enabled
Precision: mixed
----------------------------------------------------------
  generated 2278 of 2278 mixed pair_coeff terms from arithmetic mixing rule
Neighbor list info ...
  update every 1 steps, delay 5 steps, check yes
  max neighbors/atom: 2000, page size: 100000
  master list distance cutoff = 12
  ghost atom cutoff = 12
  binsize = 6, bins = 19 26 25
  1 neighbor lists, perpetual/occasional/extra = 1 0 0
  (1) pair lj/charmm/coul/long/intel, perpetual
      attributes: half, newton on, intel
      pair build: half/bin/newton/intel
      stencil: half/bin/3d
      bin: intel
Setting up Verlet run ...
  Unit style    : real
  Current step  : 0
  Time step     : 2
Per MPI rank memory allocation (min/avg/max) = 71.03 | 71.67 | 72.31 Mbytes
---------------- Step        0 ----- CPU =      0.0000 (sec) ----------------
TotEng   =   -202864.5380 KinEng   =    171558.6503 Temp     =       299.0288 
PotEng   =   -374423.1883 E_bond   =     20303.9370 E_angle  =     87370.9630 
E_dihed  =     41694.2900 E_impro  =      1708.1116 E_vdwl   =    -18462.9090 
E_coul   =   1670250.1019 E_long   =  -2177287.6827 Press    =      -148.4154 
Volume   =   2463960.2680 
---------------- Step       50 ----- CPU =      0.6512 (sec) ----------------
TotEng   =   -202648.8415 KinEng   =    172008.0195 Temp     =       299.8121 
PotEng   =   -374656.8611 E_bond   =     19774.0733 E_angle  =     86693.4471 
E_dihed  =     41917.3644 E_impro  =      1816.9621 E_vdwl   =    -15944.9457 
E_coul   =   1668429.0062 E_long   =  -2177342.7685 Press    =       238.9827 
Volume   =   2464255.7501 
---------------- Step      100 ----- CPU =      1.3074 (sec) ----------------
TotEng   =   -202322.0824 KinEng   =    172719.9007 Temp     =       301.0529 
PotEng   =   -375041.9831 E_bond   =     20544.0858 E_angle  =     86258.0209 
E_dihed  =     41590.1117 E_impro  =      1734.0868 E_vdwl   =    -15193.5335 
E_coul   =   1667326.4580 E_long   =  -2177301.2129 Press    =        13.7577 
Volume   =   2465083.9313 
---------------- Step      150 ----- CPU =      1.9621 (sec) ----------------
TotEng   =   -202065.0626 KinEng   =    172251.7479 Temp     =       300.2369 
PotEng   =   -374316.8106 E_bond   =     20454.1887 E_angle  =     86834.8598 
E_dihed  =     42116.9263 E_impro  =      1624.5629 E_vdwl   =    -16578.3764 
E_coul   =   1668456.6157 E_long   =  -2177225.5875 Press    =       245.4922 
Volume   =   2468149.4579 
---------------- Step      200 ----- CPU =      2.6035 (sec) ----------------
TotEng   =   -200638.0325 KinEng   =    172237.2716 Temp     =       300.2116 
PotEng   =   -372875.3041 E_bond   =     19915.6405 E_angle  =     88600.8035 
E_dihed  =     41769.2227 E_impro  =      1860.1838 E_vdwl   =    -17200.0061 
E_coul   =   1669423.2129 E_long   =  -2177244.3615 Press    =        44.8873 
Volume   =   2471991.0530 
---------------- Step      250 ----- CPU =      3.2427 (sec) ----------------
TotEng   =   -199651.5427 KinEng   =    172662.8889 Temp     =       300.9535 
PotEng   =   -372314.4316 E_bond   =     20335.0579 E_angle  =     88801.5836 
E_dihed  =     41953.0747 E_impro  =      1700.8074 E_vdwl   =    -17044.2117 
E_coul   =   1669309.9798 E_long   =  -2177370.7234 Press    =      -140.3256 
Volume   =   2475151.1290 
---------------- Step      300 ----- CPU =      3.8552 (sec) ----------------
TotEng   =   -200329.6486 KinEng   =    171612.7790 Temp     =       299.1231 
PotEng   =   -371942.4276 E_bond   =     20480.9470 E_angle  =     87357.4463 
E_dihed  =     41772.6363 E_impro  =      1784.7503 E_vdwl   =    -17917.4886 
E_coul   =   1671762.3214 E_long   =  -2177183.0404 Press    =      -415.1467 
Volume   =   2477558.6121 
---------------- Step      350 ----- CPU =      4.4607 (sec) ----------------
TotEng   =   -201556.0831 KinEng   =    172310.4037 Temp     =       300.3391 
PotEng   =   -373866.4868 E_bond   =     20580.5239 E_angle  =     87538.2591 
E_dihed  =     42039.3101 E_impro  =      1664.2130 E_vdwl   =    -17644.4097 
E_coul   =   1669168.5501 E_long   =  -2177212.9333 Press    =      -440.3980 
Volume   =   2478525.7478 
---------------- Step      400 ----- CPU =      5.0621 (sec) ----------------
TotEng   =   -202579.2688 KinEng   =    171541.9550 Temp     =       298.9997 
PotEng   =   -374121.2238 E_bond   =     20245.6816 E_angle  =     87261.7214 
E_dihed  =     41834.7167 E_impro  =      1745.8906 E_vdwl   =    -16534.2554 
E_coul   =   1668622.7147 E_long   =  -2177297.6936 Press    =       156.4356 
Volume   =   2478346.2196 
---------------- Step      450 ----- CPU =      5.6608 (sec) ----------------
TotEng   =   -202787.5209 KinEng   =    171624.9876 Temp     =       299.1444 
PotEng   =   -374412.5085 E_bond   =     19945.6995 E_angle  =     87150.2183 
E_dihed  =     42133.5724 E_impro  =      1793.9751 E_vdwl   =    -16603.3310 
E_coul   =   1668377.7245 E_long   =  -2177210.3673 Press    =       262.8712 
Volume   =   2478133.4849 
---------------- Step      500 ----- CPU =      6.2623 (sec) ----------------
TotEng   =   -200947.6142 KinEng   =    172146.8818 Temp     =       300.0541 
PotEng   =   -373094.4959 E_bond   =     20621.4599 E_angle  =     87230.6514 
E_dihed  =     42067.7959 E_impro  =      1749.1227 E_vdwl   =    -16076.5638 
E_coul   =   1668524.6892 E_long   =  -2177211.6513 Press    =       -97.7094 
Volume   =   2478435.5150 
---------------- Step      550 ----- CPU =      6.8643 (sec) ----------------
TotEng   =   -199315.8944 KinEng   =    173081.4165 Temp     =       301.6830 
PotEng   =   -372397.3109 E_bond   =     20310.6028 E_angle  =     87451.4882 
E_dihed  =     41634.2138 E_impro  =      1853.6764 E_vdwl   =    -15834.9881 
E_coul   =   1669402.8508 E_long   =  -2177215.1547 Press    =       379.0307 
Volume   =   2479762.4558 
---------------- Step      600 ----- CPU =      7.4691 (sec) ----------------
TotEng   =   -199047.1064 KinEng   =    173172.5214 Temp     =       301.8418 
PotEng   =   -372219.6278 E_bond   =     20395.0531 E_angle  =     87995.7665 
E_dihed  =     42000.1578 E_impro  =      1752.8711 E_vdwl   =    -18103.4643 
E_coul   =   1670943.6632 E_long   =  -2177203.6752 Press    =       -65.2990 
Volume   =   2482205.1035 
---------------- Step      650 ----- CPU =      8.0744 (sec) ----------------
TotEng   =   -199762.9649 KinEng   =    172720.4436 Temp     =       301.0538 
PotEng   =   -372483.4085 E_bond   =     20312.6082 E_angle  =     86784.4287 
E_dihed  =     42051.7370 E_impro  =      1698.2774 E_vdwl   =    -17461.9619 
E_coul   =   1671395.6922 E_long   =  -2177264.1902 Press    =      -214.2776 
Volume   =   2484038.3728 
---------------- Step      700 ----- CPU =      8.6782 (sec) ----------------
TotEng   =   -200181.3784 KinEng   =    172493.2705 Temp     =       300.6579 
PotEng   =   -372674.6489 E_bond   =     19990.6979 E_angle  =     87603.7396 
E_dihed  =     42001.2354 E_impro  =      1758.1577 E_vdwl   =    -17796.3599 
E_coul   =   1670991.7030 E_long   =  -2177223.8225 Press    =        64.4490 
Volume   =   2485320.5233 
---------------- Step      750 ----- CPU =      9.2816 (sec) ----------------
TotEng   =   -200384.9585 KinEng   =    171578.7824 Temp     =       299.0639 
PotEng   =   -371963.7408 E_bond   =     20548.4498 E_angle  =     88230.2048 
E_dihed  =     42119.2848 E_impro  =      1722.0325 E_vdwl   =    -17210.7950 
E_coul   =   1669891.0090 E_long   =  -2177263.9267 Press    =        24.2886 
Volume   =   2485812.9138 
---------------- Step      800 ----- CPU =      9.8883 (sec) ----------------
TotEng   =   -200585.8150 KinEng   =    171844.1968 Temp     =       299.5265 
PotEng   =   -372430.0118 E_bond   =     20125.7368 E_angle  =     88257.7283 
E_dihed  =     42272.3685 E_impro  =      1714.1674 E_vdwl   =    -16565.3203 
E_coul   =   1668978.0520 E_long   =  -2177212.7444 Press    =        48.1986 
Volume   =   2485558.7962 
---------------- Step      850 ----- CPU =     10.4940 (sec) ----------------
TotEng   =   -200347.1473 KinEng   =    172476.0890 Temp     =       300.6279 
PotEng   =   -372823.2363 E_bond   =     20291.3512 E_angle  =     87827.5202 
E_dihed  =     42278.1853 E_impro  =      1749.4216 E_vdwl   =    -16805.4625 
E_coul   =   1669060.9730 E_long   =  -2177225.2251 Press    =        75.2873 
Volume   =   2484634.6620 
---------------- Step      900 ----- CPU =     11.0965 (sec) ----------------
TotEng   =   -199986.2156 KinEng   =    172089.3518 Temp     =       299.9538 
PotEng   =   -372075.5674 E_bond   =     20139.4248 E_angle  =     87970.2209 
E_dihed  =     42335.7860 E_impro  =      1844.3345 E_vdwl   =    -16285.8905 
E_coul   =   1669159.0008 E_long   =  -2177238.4438 Press    =       163.8763 
Volume   =   2483319.1719 
---------------- Step      950 ----- CPU =     11.7025 (sec) ----------------
TotEng   =   -199801.2252 KinEng   =    172128.6739 Temp     =       300.0224 
PotEng   =   -371929.8991 E_bond   =     20421.8974 E_angle  =     87917.9383 
E_dihed  =     42253.4890 E_impro  =      1840.1229 E_vdwl   =    -17195.5589 
E_coul   =   1670036.0418 E_long   =  -2177203.8296 Press    =      -113.3902 
Volume   =   2481978.6118 
---------------- Step     1000 ----- CPU =     12.3075 (sec) ----------------
TotEng   =   -200043.8803 KinEng   =    172038.0638 Temp     =       299.8644 
PotEng   =   -372081.9441 E_bond   =     20591.6359 E_angle  =     88384.1684 
E_dihed  =     41971.8257 E_impro  =      1737.3181 E_vdwl   =    -17087.5613 
E_coul   =   1669585.2164 E_long   =  -2177264.5472 Press    =       -24.0174 
Volume   =   2480375.0467 
---------------- Step     1050 ----- CPU =     12.9135 (sec) ----------------
TotEng   =   -200461.8483 KinEng   =    172195.6462 Temp     =       300.1391 
PotEng   =   -372657.4945 E_bond   =     20340.8037 E_angle  =     87927.8576 
E_dihed  =     42031.0873 E_impro  =      1759.4293 E_vdwl   =    -16737.4227 
E_coul   =   1669294.8450 E_long   =  -2177274.0946 Press    =       -86.3582 
Volume   =   2478700.5791 
---------------- Step     1100 ----- CPU =     13.5308 (sec) ----------------
TotEng   =   -200998.2327 KinEng   =    171852.5480 Temp     =       299.5411 
PotEng   =   -372850.7806 E_bond   =     20399.9274 E_angle  =     88177.7739 
E_dihed  =     42179.8615 E_impro  =      1831.6298 E_vdwl   =    -16762.2208 
E_coul   =   1668558.2252 E_long   =  -2177235.9777 Press    =       165.8645 
Volume   =   2477286.8181 
---------------- Step     1150 ----- CPU =     14.1411 (sec) ----------------
TotEng   =   -201377.4686 KinEng   =    171961.7505 Temp     =       299.7314 
PotEng   =   -373339.2191 E_bond   =     20609.0799 E_angle  =     87377.9113 
E_dihed  =     42074.2610 E_impro  =      1735.9732 E_vdwl   =    -16560.8330 
E_coul   =   1668685.0646 E_long   =  -2177260.6763 Press    =         6.9187 
Volume   =   2476009.2024 
---------------- Step     1200 ----- CPU =     14.7474 (sec) ----------------
TotEng   =   -201381.2111 KinEng   =    171857.4085 Temp     =       299.5495 
PotEng   =   -373238.6196 E_bond   =     20693.6797 E_angle  =     87639.4288 
E_dihed  =     41972.6335 E_impro  =      1796.7628 E_vdwl   =    -16698.0019 
E_coul   =   1668573.3980 E_long   =  -2177216.5205 Press    =       -29.6122 
Volume   =   2475000.7024 
---------------- Step     1250 ----- CPU =     15.3547 (sec) ----------------
TotEng   =   -201180.0356 KinEng   =    171907.7067 Temp     =       299.6372 
PotEng   =   -373087.7422 E_bond   =     20611.8109 E_angle  =     87550.4207 
E_dihed  =     41905.2480 E_impro  =      1789.8193 E_vdwl   =    -16394.4086 
E_coul   =   1668693.2872 E_long   =  -2177243.9197 Press    =        29.3182 
Volume   =   2474858.1672 
---------------- Step     1300 ----- CPU =     15.9632 (sec) ----------------
TotEng   =   -200738.6320 KinEng   =    172634.7707 Temp     =       300.9045 
PotEng   =   -373373.4027 E_bond   =     20558.2073 E_angle  =     87634.8397 
E_dihed  =     42002.7520 E_impro  =      1825.1012 E_vdwl   =    -16808.1199 
E_coul   =   1668731.0778 E_long   =  -2177317.2609 Press    =        66.4070 
Volume   =   2475478.6366 
---------------- Step     1350 ----- CPU =     16.5699 (sec) ----------------
TotEng   =   -200385.2070 KinEng   =    172619.1365 Temp     =       300.8772 
PotEng   =   -373004.3435 E_bond   =     20544.0654 E_angle  =     88055.5339 
E_dihed  =     41982.1356 E_impro  =      1808.4370 E_vdwl   =    -16966.8787 
E_coul   =   1668795.2491 E_long   =  -2177222.8857 Press    =        39.4658 
Volume   =   2476967.7085 
---------------- Step     1400 ----- CPU =     17.1886 (sec) ----------------
TotEng   =   -200253.6546 KinEng   =    172210.8919 Temp     =       300.1657 
PotEng   =   -372464.5465 E_bond   =     20532.2453 E_angle  =     87943.4246 
E_dihed  =     42170.4421 E_impro  =      1825.4763 E_vdwl   =    -16832.5056 
E_coul   =   1669143.0107 E_long   =  -2177246.6399 Press    =        69.6826 
Volume   =   2478451.1496 
---------------- Step     1450 ----- CPU =     17.7844 (sec) ----------------
TotEng   =   -200215.6868 KinEng   =    172038.9821 Temp     =       299.8660 
PotEng   =   -372254.6690 E_bond   =     20450.6271 E_angle  =     88047.8359 
E_dihed  =     42292.9990 E_impro  =      1780.7622 E_vdwl   =    -17275.9552 
E_coul   =   1669725.5438 E_long   =  -2177276.4818 Press    =      -150.3259 
Volume   =   2479710.9256 
---------------- Step     1500 ----- CPU =     18.3903 (sec) ----------------
TotEng   =   -199985.3261 KinEng   =    172136.9433 Temp     =       300.0368 
PotEng   =   -372122.2694 E_bond   =     20727.3184 E_angle  =     88020.4748 
E_dihed  =     42153.0519 E_impro  =      1814.4811 E_vdwl   =    -16492.0021 
E_coul   =   1668909.0951 E_long   =  -2177254.6887 Press    =      -164.6910 
Volume   =   2480360.3102 
---------------- Step     1550 ----- CPU =     18.9973 (sec) ----------------
TotEng   =   -200125.8821 KinEng   =    172048.2567 Temp     =       299.8822 
PotEng   =   -372174.1389 E_bond   =     20542.3554 E_angle  =     88241.9238 
E_dihed  =     42238.1052 E_impro  =      1783.9601 E_vdwl   =    -16544.2796 
E_coul   =   1668830.7974 E_long   =  -2177267.0011 Press    =       -49.0437 
Volume   =   2480296.8788 
---------------- Step     1600 ----- CPU =     19.6184 (sec) ----------------
TotEng   =   -200592.3452 KinEng   =    172095.2351 Temp     =       299.9641 
PotEng   =   -372687.5803 E_bond   =     20483.2956 E_angle  =     87934.7700 
E_dihed  =     42125.2790 E_impro  =      1735.0796 E_vdwl   =    -16511.1209 
E_coul   =   1668761.3175 E_long   =  -2177216.2010 Press    =        34.0441 
Volume   =   2479543.4727 
---------------- Step     1650 ----- CPU =     20.2158 (sec) ----------------
TotEng   =   -200859.7008 KinEng   =    172095.2362 Temp     =       299.9641 
PotEng   =   -372954.9370 E_bond   =     20412.1369 E_angle  =     87841.1003 
E_dihed  =     42018.5537 E_impro  =      1803.1271 E_vdwl   =    -16367.0655 
E_coul   =   1668546.9890 E_long   =  -2177209.7785 Press    =        95.0126 
Volume   =   2478647.0648 
---------------- Step     1700 ----- CPU =     20.8227 (sec) ----------------
TotEng   =   -200796.2287 KinEng   =    172034.1061 Temp     =       299.8575 
PotEng   =   -372830.3348 E_bond   =     20337.5384 E_angle  =     88181.0769 
E_dihed  =     42048.9341 E_impro  =      1707.4909 E_vdwl   =    -16677.6257 
E_coul   =   1668832.4910 E_long   =  -2177260.2402 Press    =       132.7218 
Volume   =   2478002.7424 
---------------- Step     1750 ----- CPU =     21.4415 (sec) ----------------
TotEng   =   -200574.2834 KinEng   =    172161.1462 Temp     =       300.0790 
PotEng   =   -372735.4297 E_bond   =     20474.3219 E_angle  =     88151.9567 
E_dihed  =     42028.7322 E_impro  =      1777.3541 E_vdwl   =    -16940.2472 
E_coul   =   1668982.6460 E_long   =  -2177210.1933 Press    =       -42.5063 
Volume   =   2477533.2782 
---------------- Step     1800 ----- CPU =     22.0505 (sec) ----------------
TotEng   =   -200212.7182 KinEng   =    172300.3114 Temp     =       300.3215 
PotEng   =   -372513.0296 E_bond   =     20423.2930 E_angle  =     88544.8521 
E_dihed  =     42010.7657 E_impro  =      1794.1984 E_vdwl   =    -16628.7591 
E_coul   =   1668550.2743 E_long   =  -2177207.6540 Press    =       -16.0115 
Volume   =   2476928.5608 
---------------- Step     1850 ----- CPU =     22.6623 (sec) ----------------
TotEng   =   -200328.1666 KinEng   =    172813.0667 Temp     =       301.2153 
PotEng   =   -373141.2333 E_bond   =     20434.8291 E_angle  =     87815.8459 
E_dihed  =     42079.7711 E_impro  =      1719.2351 E_vdwl   =    -16465.4878 
E_coul   =   1668542.7012 E_long   =  -2177268.1279 Press    =       182.8073 
Volume   =   2476427.5503 
---------------- Step     1900 ----- CPU =     23.2713 (sec) ----------------
TotEng   =   -200838.7673 KinEng   =    171828.0922 Temp     =       299.4984 
PotEng   =   -372666.8595 E_bond   =     20608.0271 E_angle  =     88611.3502 
E_dihed  =     42029.9036 E_impro  =      1754.3511 E_vdwl   =    -16884.9684 
E_coul   =   1668466.9092 E_long   =  -2177252.4322 Press    =      -108.3103 
Volume   =   2476236.9368 
---------------- Step     1950 ----- CPU =     23.8801 (sec) ----------------
TotEng   =   -201472.5155 KinEng   =    171721.9001 Temp     =       299.3133 
PotEng   =   -373194.4156 E_bond   =     20408.6289 E_angle  =     87817.8883 
E_dihed  =     42143.5728 E_impro  =      1796.1749 E_vdwl   =    -17036.6965 
E_coul   =   1668942.7958 E_long   =  -2177266.7799 Press    =       -49.6509 
Volume   =   2475762.1652 
---------------- Step     2000 ----- CPU =     24.4888 (sec) ----------------
TotEng   =   -201537.4869 KinEng   =    172162.5820 Temp     =       300.0815 
PotEng   =   -373700.0690 E_bond   =     20564.4590 E_angle  =     87886.0483 
E_dihed  =     42106.8640 E_impro  =      1767.3899 E_vdwl   =    -17048.8803 
E_coul   =   1668277.0036 E_long   =  -2177252.9535 Press    =         4.0943 
Volume   =   2475213.7797 
---------------- Step     2050 ----- CPU =     25.1014 (sec) ----------------
TotEng   =   -201232.1757 KinEng   =    172519.7904 Temp     =       300.7041 
PotEng   =   -373751.9661 E_bond   =     20250.2488 E_angle  =     87759.9407 
E_dihed  =     41993.5140 E_impro  =      1818.6203 E_vdwl   =    -16418.3298 
E_coul   =   1668094.4746 E_long   =  -2177250.4348 Press    =        24.7550 
Volume   =   2474518.5011 
---------------- Step     2100 ----- CPU =     25.7123 (sec) ----------------
TotEng   =   -201118.7796 KinEng   =    172029.4117 Temp     =       299.8493 
PotEng   =   -373148.1913 E_bond   =     20621.8778 E_angle  =     88030.6223 
E_dihed  =     42109.7466 E_impro  =      1776.8435 E_vdwl   =    -16514.5070 
E_coul   =   1668058.2797 E_long   =  -2177231.0542 Press    =        24.0679 
Volume   =   2474132.7980 
---------------- Step     2150 ----- CPU =     26.3252 (sec) ----------------
TotEng   =   -201207.6443 KinEng   =    172355.2254 Temp     =       300.4172 
PotEng   =   -373562.8697 E_bond   =     20514.7438 E_angle  =     87941.9902 
E_dihed  =     42250.6397 E_impro  =      1814.7393 E_vdwl   =    -16814.1904 
E_coul   =   1667987.6110 E_long   =  -2177258.4033 Press    =       -40.4995 
Volume   =   2473985.7833 
---------------- Step     2200 ----- CPU =     26.9371 (sec) ----------------
TotEng   =   -201288.1643 KinEng   =    172022.4449 Temp     =       299.8372 
PotEng   =   -373310.6092 E_bond   =     20548.2258 E_angle  =     88144.5719 
E_dihed  =     42051.9538 E_impro  =      1840.4615 E_vdwl   =    -16581.6173 
E_coul   =   1667952.8980 E_long   =  -2177267.1028 Press    =        -6.4307 
Volume   =   2474004.4765 
---------------- Step     2250 ----- CPU =     27.5591 (sec) ----------------
TotEng   =   -201197.5852 KinEng   =    171929.3021 Temp     =       299.6748 
PotEng   =   -373126.8872 E_bond   =     20513.8826 E_angle  =     88039.2477 
E_dihed  =     42129.6353 E_impro  =      1833.2730 E_vdwl   =    -16360.3283 
E_coul   =   1667961.5238 E_long   =  -2177244.1213 Press    =         6.3968 
Volume   =   2473774.7288 
---------------- Step     2300 ----- CPU =     28.1710 (sec) ----------------
TotEng   =   -201060.5006 KinEng   =    171945.4010 Temp     =       299.7029 
PotEng   =   -373005.9016 E_bond   =     20550.7402 E_angle  =     88028.8235 
E_dihed  =     42240.6211 E_impro  =      1808.3111 E_vdwl   =    -17074.2157 
E_coul   =   1668678.0834 E_long   =  -2177238.2653 Press    =       -60.4992 
Volume   =   2473572.3625 
---------------- Step     2350 ----- CPU =     28.7817 (sec) ----------------
TotEng   =   -200898.2970 KinEng   =    172303.0206 Temp     =       300.3262 
PotEng   =   -373201.3176 E_bond   =     20607.8360 E_angle  =     88098.1782 
E_dihed  =     41951.6118 E_impro  =      1768.2797 E_vdwl   =    -16490.3573 
E_coul   =   1668118.8753 E_long   =  -2177255.7414 Press    =        26.2581 
Volume   =   2473255.8962 
---------------- Step     2400 ----- CPU =     29.3920 (sec) ----------------
TotEng   =   -200853.7589 KinEng   =    172231.6646 Temp     =       300.2019 
PotEng   =   -373085.4235 E_bond   =     20556.9592 E_angle  =     88312.6469 
E_dihed  =     41935.3373 E_impro  =      1829.0208 E_vdwl   =    -17247.2099 
E_coul   =   1668786.7146 E_long   =  -2177258.8924 Press    =       -28.0426 
Volume   =   2473151.7180 
---------------- Step     2450 ----- CPU =     30.0032 (sec) ----------------
TotEng   =   -200872.9171 KinEng   =    172002.9846 Temp     =       299.8033 
PotEng   =   -372875.9018 E_bond   =     20624.0846 E_angle  =     88207.9266 
E_dihed  =     42046.7511 E_impro  =      1835.6578 E_vdwl   =    -16186.8037 
E_coul   =   1667903.5361 E_long   =  -2177307.0542 Press    =         3.6679 
Volume   =   2472536.5008 
---------------- Step     2500 ----- CPU =     30.6192 (sec) ----------------
TotEng   =   -201050.4596 KinEng   =    171879.3340 Temp     =       299.5878 
PotEng   =   -372929.7936 E_bond   =     20520.3530 E_angle  =     88129.9598 
E_dihed  =     42211.6776 E_impro  =      1863.8408 E_vdwl   =    -16577.4321 
E_coul   =   1668184.2412 E_long   =  -2177262.4340 Press    =        19.5994 
Volume   =   2472773.2302 
---------------- Step     2550 ----- CPU =     31.2331 (sec) ----------------
TotEng   =   -201326.2189 KinEng   =    172082.3099 Temp     =       299.9415 
PotEng   =   -373408.5288 E_bond   =     20549.7958 E_angle  =     87982.6833 
E_dihed  =     42077.1540 E_impro  =      1787.0271 E_vdwl   =    -16678.2875 
E_coul   =   1668137.5207 E_long   =  -2177264.4221 Press    =       -34.8696 
Volume   =   2473009.5195 
---------------- Step     2600 ----- CPU =     31.8499 (sec) ----------------
TotEng   =   -201292.8655 KinEng   =    171827.1677 Temp     =       299.4968 
PotEng   =   -373120.0331 E_bond   =     20732.7136 E_angle  =     88171.4422 
E_dihed  =     42254.4309 E_impro  =      1778.7986 E_vdwl   =    -16971.2517 
E_coul   =   1668170.1996 E_long   =  -2177256.3662 Press    =      -107.4523 
Volume   =   2473229.3873 
---------------- Step     2650 ----- CPU =     32.4661 (sec) ----------------
TotEng   =   -201043.1992 KinEng   =    171997.7026 Temp     =       299.7941 
PotEng   =   -373040.9017 E_bond   =     20584.3407 E_angle  =     88600.9300 
E_dihed  =     42016.1460 E_impro  =      1767.2969 E_vdwl   =    -16876.5308 
E_coul   =   1668108.8926 E_long   =  -2177241.9772 Press    =        -8.6657 
Volume   =   2473052.1568 
---------------- Step     2700 ----- CPU =     33.0833 (sec) ----------------
TotEng   =   -201088.4190 KinEng   =    172093.2640 Temp     =       299.9606 
PotEng   =   -373181.6830 E_bond   =     20655.8186 E_angle  =     88080.7120 
E_dihed  =     42071.5938 E_impro  =      1785.7139 E_vdwl   =    -16609.3555 
E_coul   =   1668094.0244 E_long   =  -2177260.1901 Press    =        15.6588 
Volume   =   2472671.7870 
---------------- Step     2750 ----- CPU =     33.7004 (sec) ----------------
TotEng   =   -201517.4596 KinEng   =    171696.0499 Temp     =       299.2683 
PotEng   =   -373213.5094 E_bond   =     20627.6137 E_angle  =     88121.8601 
E_dihed  =     42183.9577 E_impro  =      1776.5651 E_vdwl   =    -16818.2274 
E_coul   =   1668187.3779 E_long   =  -2177292.6566 Press    =       -54.0576 
Volume   =   2472443.1130 
---------------- Step     2800 ----- CPU =     34.3167 (sec) ----------------
TotEng   =   -201739.6601 KinEng   =    171370.0126 Temp     =       298.7000 
PotEng   =   -373109.6728 E_bond   =     20536.4742 E_angle  =     88414.7873 
E_dihed  =     42240.3925 E_impro  =      1770.8824 E_vdwl   =    -16710.3243 
E_coul   =   1667898.3320 E_long   =  -2177260.2167 Press    =       -13.2498 
Volume   =   2471512.5314 
---------------- Step     2850 ----- CPU =     34.9290 (sec) ----------------
TotEng   =   -201272.4523 KinEng   =    172588.6619 Temp     =       300.8241 
PotEng   =   -373861.1142 E_bond   =     20525.7458 E_angle  =     88010.1772 
E_dihed  =     42176.3900 E_impro  =      1809.3405 E_vdwl   =    -16767.0485 
E_coul   =   1667689.0721 E_long   =  -2177304.7912 Press    =       -64.4685 
Volume   =   2471195.1060 
---------------- Step     2900 ----- CPU =     35.5404 (sec) ----------------
TotEng   =   -200839.5427 KinEng   =    172237.8798 Temp     =       300.2127 
PotEng   =   -373077.4224 E_bond   =     20465.5395 E_angle  =     88436.6298 
E_dihed  =     42192.4636 E_impro  =      1812.2399 E_vdwl   =    -16664.2080 
E_coul   =   1667941.6577 E_long   =  -2177261.7448 Press    =        71.7358 
Volume   =   2471001.6349 
---------------- Step     2950 ----- CPU =     36.1515 (sec) ----------------
TotEng   =   -200704.9083 KinEng   =    172487.4023 Temp     =       300.6476 
PotEng   =   -373192.3106 E_bond   =     20771.5275 E_angle  =     88210.1716 
E_dihed  =     42101.2787 E_impro  =      1841.9683 E_vdwl   =    -16753.9021 
E_coul   =   1667896.0167 E_long   =  -2177259.3714 Press    =       -29.0338 
Volume   =   2470774.8748 
---------------- Step     3000 ----- CPU =     36.7666 (sec) ----------------
TotEng   =   -201097.1938 KinEng   =    172128.9253 Temp     =       300.0228 
PotEng   =   -373226.1191 E_bond   =     20641.0681 E_angle  =     88015.1303 
E_dihed  =     41974.4173 E_impro  =      1858.2953 E_vdwl   =    -16599.6111 
E_coul   =   1668147.5478 E_long   =  -2177262.9668 Press    =         7.7584 
Volume   =   2470538.2939 
---------------- Step     3050 ----- CPU =     37.3806 (sec) ----------------
TotEng   =   -201453.2083 KinEng   =    171848.1304 Temp     =       299.5334 
PotEng   =   -373301.3387 E_bond   =     20465.9105 E_angle  =     88114.2127 
E_dihed  =     42268.6422 E_impro  =      1787.6969 E_vdwl   =    -16847.1718 
E_coul   =   1668190.6421 E_long   =  -2177281.2714 Press    =        84.4641 
Volume   =   2470775.2542 
---------------- Step     3100 ----- CPU =     37.9959 (sec) ----------------
TotEng   =   -201710.8459 KinEng   =    172424.0696 Temp     =       300.5372 
PotEng   =   -374134.9155 E_bond   =     20580.2082 E_angle  =     88109.4671 
E_dihed  =     42089.4668 E_impro  =      1790.4316 E_vdwl   =    -16721.6335 
E_coul   =   1667297.3103 E_long   =  -2177280.1660 Press    =       -36.3874 
Volume   =   2471375.1132 
---------------- Step     3150 ----- CPU =     38.6138 (sec) ----------------
TotEng   =   -201857.7062 KinEng   =    172271.1721 Temp     =       300.2707 
PotEng   =   -374128.8782 E_bond   =     20460.9583 E_angle  =     87980.5123 
E_dihed  =     42148.4363 E_impro  =      1798.8586 E_vdwl   =    -15986.6260 
E_coul   =   1666760.9861 E_long   =  -2177292.0037 Press    =        79.7654 
Volume   =   2471843.5133 
---------------- Step     3200 ----- CPU =     39.2281 (sec) ----------------
TotEng   =   -201699.7380 KinEng   =    171847.9408 Temp     =       299.5330 
PotEng   =   -373547.6788 E_bond   =     20391.9420 E_angle  =     88341.9706 
E_dihed  =     42358.7782 E_impro  =      1797.5274 E_vdwl   =    -16607.4766 
E_coul   =   1667453.6963 E_long   =  -2177284.1166 Press    =        11.3625 
Volume   =   2472478.7987 
---------------- Step     3250 ----- CPU =     39.8434 (sec) ----------------
TotEng   =   -201381.3216 KinEng   =    172061.6778 Temp     =       299.9056 
PotEng   =   -373442.9994 E_bond   =     20617.4839 E_angle  =     88062.7948 
E_dihed  =     42086.1250 E_impro  =      1800.7351 E_vdwl   =    -16354.9161 
E_coul   =   1667624.2406 E_long   =  -2177279.4627 Press    =        -3.4645 
Volume   =   2472791.9311 
---------------- Step     3300 ----- CPU =     40.4601 (sec) ----------------
TotEng   =   -201201.5485 KinEng   =    172244.7347 Temp     =       300.2247 
PotEng   =   -373446.2832 E_bond   =     20553.7567 E_angle  =     87829.6654 
E_dihed  =     42212.0690 E_impro  =      1867.4632 E_vdwl   =    -16385.9860 
E_coul   =   1667746.5123 E_long   =  -2177269.7638 Press    =        26.3951 
Volume   =   2473210.9363 
---------------- Step     3350 ----- CPU =     41.0746 (sec) ----------------
TotEng   =   -201063.6908 KinEng   =    172402.3827 Temp     =       300.4994 
PotEng   =   -373466.0735 E_bond   =     20377.5324 E_angle  =     88238.6541 
E_dihed  =     42067.1897 E_impro  =      1828.4765 E_vdwl   =    -16658.9606 
E_coul   =   1667948.0458 E_long   =  -2177267.0114 Press    =       -17.3348 
Volume   =   2473977.3522 
---------------- Step     3400 ----- CPU =     41.6890 (sec) ----------------
TotEng   =   -201135.3510 KinEng   =    172494.1313 Temp     =       300.6594 
PotEng   =   -373629.4824 E_bond   =     20783.4216 E_angle  =     87680.9482 
E_dihed  =     42028.9355 E_impro  =      1808.0918 E_vdwl   =    -16669.8744 
E_coul   =   1668005.2820 E_long   =  -2177266.2870 Press    =        14.5302 
Volume   =   2474481.9902 
---------------- Step     3450 ----- CPU =     42.3046 (sec) ----------------
TotEng   =   -201423.6145 KinEng   =    171950.1827 Temp     =       299.7112 
PotEng   =   -373373.7972 E_bond   =     20757.1332 E_angle  =     88093.4309 
E_dihed  =     42134.0026 E_impro  =      1794.5785 E_vdwl   =    -16314.8842 
E_coul   =   1667427.4959 E_long   =  -2177265.5541 Press    =       -98.1138 
Volume   =   2475404.7676 
---------------- Step     3500 ----- CPU =     42.9319 (sec) ----------------
TotEng   =   -201654.8991 KinEng   =    172429.9124 Temp     =       300.5474 
PotEng   =   -374084.8115 E_bond   =     20480.8602 E_angle  =     88072.6934 
E_dihed  =     42022.3121 E_impro  =      1804.6894 E_vdwl   =    -16527.4106 
E_coul   =   1667367.6293 E_long   =  -2177305.5853 Press    =        11.2877 
Volume   =   2476313.4892 
---------------- Step     3550 ----- CPU =     43.5478 (sec) ----------------
TotEng   =   -201832.5971 KinEng   =    171745.3879 Temp     =       299.3543 
PotEng   =   -373577.9850 E_bond   =     20552.5029 E_angle  =     88152.9737 
E_dihed  =     41886.5049 E_impro  =      1801.8094 E_vdwl   =    -16641.7585 
E_coul   =   1667903.2111 E_long   =  -2177233.2284 Press    =      -141.1352 
Volume   =   2477010.1266 
---------------- Step     3600 ----- CPU =     44.1653 (sec) ----------------
TotEng   =   -201478.3310 KinEng   =    171849.7230 Temp     =       299.5361 
PotEng   =   -373328.0540 E_bond   =     20615.4035 E_angle  =     88251.1956 
E_dihed  =     42014.0160 E_impro  =      1825.6422 E_vdwl   =    -17074.5869 
E_coul   =   1668296.8484 E_long   =  -2177256.5728 Press    =       -14.9766 
Volume   =   2477196.5524 
---------------- Step     3650 ----- CPU =     44.7821 (sec) ----------------
TotEng   =   -200604.4697 KinEng   =    172553.3780 Temp     =       300.7626 
PotEng   =   -373157.8477 E_bond   =     20837.2817 E_angle  =     88395.5960 
E_dihed  =     42041.5967 E_impro  =      1799.5403 E_vdwl   =    -16750.8340 
E_coul   =   1667777.0232 E_long   =  -2177258.0515 Press    =      -125.2355 
Volume   =   2477094.3607 
---------------- Step     3700 ----- CPU =     45.3991 (sec) ----------------
TotEng   =   -200046.9360 KinEng   =    172766.1596 Temp     =       301.1335 
PotEng   =   -372813.0957 E_bond   =     20811.0448 E_angle  =     88663.4893 
E_dihed  =     42010.7779 E_impro  =      1810.5495 E_vdwl   =    -16795.1251 
E_coul   =   1667930.4667 E_long   =  -2177244.2987 Press    =       -90.4520 
Volume   =   2476584.4212 
---------------- Step     3750 ----- CPU =     46.0141 (sec) ----------------
TotEng   =   -200416.0689 KinEng   =    172574.7590 Temp     =       300.7999 
PotEng   =   -372990.8279 E_bond   =     20682.7784 E_angle  =     88173.9960 
E_dihed  =     42098.1825 E_impro  =      1772.8709 E_vdwl   =    -16402.4349 
E_coul   =   1667927.0145 E_long   =  -2177243.2354 Press    =        66.7381 
Volume   =   2476168.8649 
---------------- Step     3800 ----- CPU =     46.6277 (sec) ----------------
TotEng   =   -201386.0975 KinEng   =    171777.6320 Temp     =       299.4105 
PotEng   =   -373163.7295 E_bond   =     20696.4564 E_angle  =     88311.8949 
E_dihed  =     42019.5165 E_impro  =      1795.1825 E_vdwl   =    -16320.1147 
E_coul   =   1667571.2443 E_long   =  -2177237.9093 Press    =        12.3384 
Volume   =   2475824.0796 
---------------- Step     3850 ----- CPU =     47.2537 (sec) ----------------
TotEng   =   -202311.3300 KinEng   =    171547.9637 Temp     =       299.0102 
PotEng   =   -373859.2937 E_bond   =     20509.4858 E_angle  =     88230.1261 
E_dihed  =     42053.5371 E_impro  =      1757.6387 E_vdwl   =    -16370.2699 
E_coul   =   1667165.5361 E_long   =  -2177205.3476 Press    =      -209.5770 
Volume   =   2475439.8960 
---------------- Step     3900 ----- CPU =     47.8691 (sec) ----------------
TotEng   =   -202540.5284 KinEng   =    171728.1287 Temp     =       299.3242 
PotEng   =   -374268.6571 E_bond   =     20845.3844 E_angle  =     87721.4098 
E_dihed  =     41833.0991 E_impro  =      1788.8246 E_vdwl   =    -16415.7319 
E_coul   =   1667208.6326 E_long   =  -2177250.2757 Press    =      -233.8888 
Volume   =   2474945.3506 
---------------- Step     3950 ----- CPU =     48.4855 (sec) ----------------
TotEng   =   -201829.8192 KinEng   =    171807.5548 Temp     =       299.4626 
PotEng   =   -373637.3740 E_bond   =     20375.1178 E_angle  =     88566.4134 
E_dihed  =     42103.0437 E_impro  =      1755.0635 E_vdwl   =    -16106.4753 
E_coul   =   1666933.0182 E_long   =  -2177263.5552 Press    =       252.5128 
Volume   =   2474273.9432 
---------------- Step     4000 ----- CPU =     49.1019 (sec) ----------------
TotEng   =   -200884.7023 KinEng   =    172703.0383 Temp     =       301.0235 
PotEng   =   -373587.7406 E_bond   =     20768.8841 E_angle  =     88273.2950 
E_dihed  =     42121.4416 E_impro  =      1770.6068 E_vdwl   =    -16230.0394 
E_coul   =   1666896.2998 E_long   =  -2177188.2285 Press    =       -76.5523 
Volume   =   2473908.7228 
---------------- Step     4050 ----- CPU =     49.7202 (sec) ----------------
TotEng   =   -200581.1827 KinEng   =    172558.1403 Temp     =       300.7709 
PotEng   =   -373139.3229 E_bond   =     20702.8020 E_angle  =     88726.7317 
E_dihed  =     42004.8620 E_impro  =      1765.8061 E_vdwl   =    -16424.5965 
E_coul   =   1667330.2042 E_long   =  -2177245.1324 Press    =        51.5042 
Volume   =   2473820.2468 
---------------- Step     4100 ----- CPU =     50.3350 (sec) ----------------
TotEng   =   -201186.4905 KinEng   =    171686.2181 Temp     =       299.2512 
PotEng   =   -372872.7086 E_bond   =     20760.4889 E_angle  =     88805.0252 
E_dihed  =     42116.4543 E_impro  =      1840.8565 E_vdwl   =    -16399.6494 
E_coul   =   1667273.5571 E_long   =  -2177269.4412 Press    =      -163.7453 
Volume   =   2473607.9043 
---------------- Step     4150 ----- CPU =     50.9499 (sec) ----------------
TotEng   =   -201983.6496 KinEng   =    171667.0649 Temp     =       299.2178 
PotEng   =   -373650.7144 E_bond   =     20747.8567 E_angle  =     88426.9596 
E_dihed  =     41999.6174 E_impro  =      1822.5552 E_vdwl   =    -16243.8550 
E_coul   =   1666876.8512 E_long   =  -2177280.6997 Press    =        10.7253 
Volume   =   2473262.3868 
---------------- Step     4200 ----- CPU =     51.5662 (sec) ----------------
TotEng   =   -202270.8327 KinEng   =    172252.1132 Temp     =       300.2375 
PotEng   =   -374522.9459 E_bond   =     20635.7008 E_angle  =     87857.0391 
E_dihed  =     41996.9505 E_impro  =      1842.7751 E_vdwl   =    -16064.7144 
E_coul   =   1666475.2129 E_long   =  -2177265.9100 Press    =       100.3092 
Volume   =   2473115.5663 
---------------- Step     4250 ----- CPU =     52.1838 (sec) ----------------
TotEng   =   -202125.2605 KinEng   =    171784.1970 Temp     =       299.4219 
PotEng   =   -373909.4575 E_bond   =     20761.7952 E_angle  =     88457.4558 
E_dihed  =     42013.9728 E_impro  =      1809.7157 E_vdwl   =    -16808.1663 
E_coul   =   1667133.3649 E_long   =  -2177277.5956 Press    =      -116.4394 
Volume   =   2473300.0813 
---------------- Step     4300 ----- CPU =     52.8024 (sec) ----------------
TotEng   =   -201718.6298 KinEng   =    172535.3862 Temp     =       300.7313 
PotEng   =   -374254.0160 E_bond   =     20527.5119 E_angle  =     88497.8575 
E_dihed  =     41928.2397 E_impro  =      1804.0054 E_vdwl   =    -16437.8787 
E_coul   =   1666674.3594 E_long   =  -2177248.1113 Press    =       129.2325 
Volume   =   2473202.3291 
---------------- Step     4350 ----- CPU =     53.4210 (sec) ----------------
TotEng   =   -201546.4583 KinEng   =    172191.7404 Temp     =       300.1323 
PotEng   =   -373738.1987 E_bond   =     20529.9436 E_angle  =     88299.5841 
E_dihed  =     42015.6175 E_impro  =      1807.6903 E_vdwl   =    -16919.9340 
E_coul   =   1667824.0819 E_long   =  -2177295.1821 Press    =        11.6832 
Volume   =   2473384.5181 
---------------- Step     4400 ----- CPU =     54.0408 (sec) ----------------
TotEng   =   -201479.5730 KinEng   =    172346.4992 Temp     =       300.4020 
PotEng   =   -373826.0722 E_bond   =     20582.3146 E_angle  =     88364.8211 
E_dihed  =     41982.0042 E_impro  =      1845.1045 E_vdwl   =    -16748.5740 
E_coul   =   1667483.5811 E_long   =  -2177335.3236 Press    =      -234.7646 
Volume   =   2473350.5889 
---------------- Step     4450 ----- CPU =     54.6554 (sec) ----------------
TotEng   =   -201492.0956 KinEng   =    172202.5473 Temp     =       300.1511 
PotEng   =   -373694.6429 E_bond   =     20516.4989 E_angle  =     88483.3185 
E_dihed  =     42063.2255 E_impro  =      1774.3020 E_vdwl   =    -16713.6672 
E_coul   =   1667471.4255 E_long   =  -2177289.7460 Press    =        90.3079 
Volume   =   2472704.8499 
---------------- Step     4500 ----- CPU =     55.2704 (sec) ----------------
TotEng   =   -201662.7192 KinEng   =    172487.2272 Temp     =       300.6473 
PotEng   =   -374149.9464 E_bond   =     20763.2281 E_angle  =     88282.8438 
E_dihed  =     42110.7547 E_impro  =      1818.7554 E_vdwl   =    -16568.6740 
E_coul   =   1666751.5961 E_long   =  -2177308.4505 Press    =       -92.5231 
Volume   =   2471894.0390 
---------------- Step     4550 ----- CPU =     55.8863 (sec) ----------------
TotEng   =   -201996.5169 KinEng   =    171802.4825 Temp     =       299.4538 
PotEng   =   -373798.9995 E_bond   =     20705.3799 E_angle  =     88287.8321 
E_dihed  =     42164.2057 E_impro  =      1744.9892 E_vdwl   =    -16603.2263 
E_coul   =   1667201.5373 E_long   =  -2177299.7174 Press    =       -51.6509 
Volume   =   2471194.0116 
---------------- Step     4600 ----- CPU =     56.5016 (sec) ----------------
TotEng   =   -201964.9259 KinEng   =    171942.9854 Temp     =       299.6987 
PotEng   =   -373907.9113 E_bond   =     20506.9564 E_angle  =     88636.6931 
E_dihed  =     42126.1456 E_impro  =      1802.0894 E_vdwl   =    -16846.3148 
E_coul   =   1667176.5527 E_long   =  -2177310.0336 Press    =       -28.2193 
Volume   =   2470621.7757 
---------------- Step     4650 ----- CPU =     57.1155 (sec) ----------------
TotEng   =   -201280.1061 KinEng   =    172127.8347 Temp     =       300.0209 
PotEng   =   -373407.9408 E_bond   =     20626.7024 E_angle  =     88525.6180 
E_dihed  =     42071.5698 E_impro  =      1832.1803 E_vdwl   =    -16596.8190 
E_coul   =   1667423.0948 E_long   =  -2177290.2871 Press    =       -48.0237 
Volume   =   2470128.9980 
---------------- Step     4700 ----- CPU =     57.7325 (sec) ----------------
TotEng   =   -200585.0982 KinEng   =    172897.0524 Temp     =       301.3616 
PotEng   =   -373482.1506 E_bond   =     20671.6022 E_angle  =     88761.1997 
E_dihed  =     42204.3270 E_impro  =      1797.0295 E_vdwl   =    -16873.4908 
E_coul   =   1667253.2391 E_long   =  -2177296.0573 Press    =       -46.4050 
Volume   =   2469543.2712 
---------------- Step     4750 ----- CPU =     58.3506 (sec) ----------------
TotEng   =   -201000.1201 KinEng   =    172305.3898 Temp     =       300.3304 
PotEng   =   -373305.5099 E_bond   =     20738.2973 E_angle  =     88614.4534 
E_dihed  =     42256.3463 E_impro  =      1813.0057 E_vdwl   =    -17332.5324 
E_coul   =   1667916.1533 E_long   =  -2177311.2334 Press    =      -240.3815 
Volume   =   2468794.0894 
---------------- Step     4800 ----- CPU =     58.9671 (sec) ----------------
TotEng   =   -201853.7827 KinEng   =    171839.8472 Temp     =       299.5189 
PotEng   =   -373693.6299 E_bond   =     20682.9219 E_angle  =     88559.9369 
E_dihed  =     42026.6782 E_impro  =      1823.6184 E_vdwl   =    -17040.8404 
E_coul   =   1667547.2702 E_long   =  -2177293.2151 Press    =       -29.5852 
Volume   =   2468157.3821 
---------------- Step     4850 ----- CPU =     59.5848 (sec) ----------------
TotEng   =   -202458.6558 KinEng   =    172118.7669 Temp     =       300.0051 
PotEng   =   -374577.4227 E_bond   =     20572.6869 E_angle  =     88015.2131 
E_dihed  =     42000.1778 E_impro  =      1775.6060 E_vdwl   =    -17102.9115 
E_coul   =   1667431.4834 E_long   =  -2177269.6783 Press    =       -26.1233 
Volume   =   2467421.6699 
---------------- Step     4900 ----- CPU =     60.2017 (sec) ----------------
TotEng   =   -202575.6731 KinEng   =    171832.5482 Temp     =       299.5062 
PotEng   =   -374408.2213 E_bond   =     20592.2194 E_angle  =     88115.4809 
E_dihed  =     42126.6598 E_impro  =      1775.8200 E_vdwl   =    -16357.8525 
E_coul   =   1666613.2535 E_long   =  -2177273.8024 Press    =       -11.3145 
Volume   =   2466829.2763 
---------------- Step     4950 ----- CPU =     60.8165 (sec) ----------------
TotEng   =   -202044.4678 KinEng   =    171977.9505 Temp     =       299.7596 
PotEng   =   -374022.4183 E_bond   =     20653.3944 E_angle  =     88518.8207 
E_dihed  =     42153.1139 E_impro  =      1841.9991 E_vdwl   =    -16577.9302 
E_coul   =   1666664.7032 E_long   =  -2177276.5194 Press    =        41.7815 
Volume   =   2466981.9756 
---------------- Step     5000 ----- CPU =     61.4338 (sec) ----------------
TotEng   =   -201227.1511 KinEng   =    172315.7159 Temp     =       300.3484 
PotEng   =   -373542.8670 E_bond   =     20769.6974 E_angle  =     88957.6716 
E_dihed  =     41977.4569 E_impro  =      1782.3891 E_vdwl   =    -16610.1465 
E_coul   =   1666849.3291 E_long   =  -2177269.2647 Press    =       -13.3726 
Volume   =   2467254.5578 
---------------- Step     5050 ----- CPU =     62.0402 (sec) ----------------
TotEng   =   -201057.3641 KinEng   =    172184.1409 Temp     =       300.1190 
PotEng   =   -373241.5049 E_bond   =     20680.3958 E_angle  =     89008.6036 
E_dihed  =     41882.9632 E_impro  =      1812.3096 E_vdwl   =    -16377.1200 
E_coul   =   1667012.1246 E_long   =  -2177260.7816 Press    =        75.8017 
Volume   =   2467869.9089 
---------------- Step     5100 ----- CPU =     62.6578 (sec) ----------------
TotEng   =   -201644.5429 KinEng   =    171987.7393 Temp     =       299.7767 
PotEng   =   -373632.2821 E_bond   =     20632.4240 E_angle  =     88667.2729 
E_dihed  =     42109.8866 E_impro  =      1774.8224 E_vdwl   =    -16607.4215 
E_coul   =   1667063.5193 E_long   =  -2177272.7858 Press    =       -50.5664 
Volume   =   2469018.0936 
---------------- Step     5150 ----- CPU =     63.2746 (sec) ----------------
TotEng   =   -202149.4312 KinEng   =    171951.6995 Temp     =       299.7139 
PotEng   =   -374101.1307 E_bond   =     20730.3717 E_angle  =     88734.8275 
E_dihed  =     41969.7673 E_impro  =      1830.8180 E_vdwl   =    -16889.6523 
E_coul   =   1666774.2323 E_long   =  -2177251.4951 Press    =       -34.8791 
Volume   =   2470018.1919 
---------------- Step     5200 ----- CPU =     63.8930 (sec) ----------------
TotEng   =   -202302.6428 KinEng   =    171945.9312 Temp     =       299.7038 
PotEng   =   -374248.5741 E_bond   =     20636.4773 E_angle  =     88480.6616 
E_dihed  =     41966.9931 E_impro  =      1835.9363 E_vdwl   =    -17317.0642 
E_coul   =   1667415.1791 E_long   =  -2177266.7572 Press    =      -124.6426 
Volume   =   2470449.8625 
---------------- Step     5250 ----- CPU =     64.5092 (sec) ----------------
TotEng   =   -202197.1778 KinEng   =    172101.7496 Temp     =       299.9754 
PotEng   =   -374298.9274 E_bond   =     20627.0825 E_angle  =     88346.8417 
E_dihed  =     42005.7098 E_impro  =      1788.5995 E_vdwl   =    -16797.7439 
E_coul   =   1667053.0539 E_long   =  -2177322.4711 Press    =       -62.4256 
Volume   =   2470144.6194 
---------------- Step     5300 ----- CPU =     65.1244 (sec) ----------------
TotEng   =   -201921.8678 KinEng   =    172168.2835 Temp     =       300.0914 
PotEng   =   -374090.1513 E_bond   =     20627.0136 E_angle  =     88611.1675 
E_dihed  =     42012.1485 E_impro  =      1765.8210 E_vdwl   =    -16672.9183 
E_coul   =   1666860.9566 E_long   =  -2177294.3404 Press    =       -29.2163 
Volume   =   2469837.1642 
---------------- Step     5350 ----- CPU =     65.7462 (sec) ----------------
TotEng   =   -201527.8351 KinEng   =    172292.6553 Temp     =       300.3082 
PotEng   =   -373820.4903 E_bond   =     20440.5716 E_angle  =     88795.2292 
E_dihed  =     41939.3684 E_impro  =      1817.3639 E_vdwl   =    -16476.2613 
E_coul   =   1666963.5245 E_long   =  -2177300.2866 Press    =       140.9494 
Volume   =   2469586.7123 
---------------- Step     5400 ----- CPU =     66.3555 (sec) ----------------
TotEng   =   -201326.3883 KinEng   =    172552.2747 Temp     =       300.7607 
PotEng   =   -373878.6630 E_bond   =     20764.7173 E_angle  =     88569.4324 
E_dihed  =     41920.2267 E_impro  =      1857.1499 E_vdwl   =    -16919.7136 
E_coul   =   1667150.0220 E_long   =  -2177220.4978 Press    =      -126.2459 
Volume   =   2469381.2885 
---------------- Step     5450 ----- CPU =     66.9644 (sec) ----------------
TotEng   =   -201577.4431 KinEng   =    172058.4077 Temp     =       299.8999 
PotEng   =   -373635.8508 E_bond   =     20834.5885 E_angle  =     88661.5285 
E_dihed  =     42037.5400 E_impro  =      1829.6986 E_vdwl   =    -16281.3044 
E_coul   =   1666525.6861 E_long   =  -2177243.5881 Press    =         5.3397 
Volume   =   2469143.8330 
---------------- Step     5500 ----- CPU =     67.5735 (sec) ----------------
TotEng   =   -202208.2801 KinEng   =    172005.8361 Temp     =       299.8082 
PotEng   =   -374214.1163 E_bond   =     20550.0273 E_angle  =     88581.4005 
E_dihed  =     42144.4733 E_impro  =      1785.9290 E_vdwl   =    -16509.3619 
E_coul   =   1666526.2066 E_long   =  -2177292.7910 Press    =       -48.9558 
Volume   =   2469036.9626 
---------------- Step     5550 ----- CPU =     68.1819 (sec) ----------------
TotEng   =   -202615.8714 KinEng   =    171754.7008 Temp     =       299.3705 
PotEng   =   -374370.5722 E_bond   =     20734.5088 E_angle  =     88506.1158 
E_dihed  =     42010.1964 E_impro  =      1786.6108 E_vdwl   =    -16655.6998 
E_coul   =   1666585.0714 E_long   =  -2177337.3757 Press    =      -121.1880 
Volume   =   2468510.1182 
---------------- Step     5600 ----- CPU =     68.7886 (sec) ----------------
TotEng   =   -202409.0522 KinEng   =    172087.7194 Temp     =       299.9510 
PotEng   =   -374496.7716 E_bond   =     20706.1036 E_angle  =     88330.4415 
E_dihed  =     42126.8957 E_impro  =      1820.8503 E_vdwl   =    -16565.3926 
E_coul   =   1666410.6736 E_long   =  -2177326.3437 Press    =        28.8941 
Volume   =   2468025.4162 
---------------- Step     5650 ----- CPU =     69.3978 (sec) ----------------
TotEng   =   -201885.4469 KinEng   =    172583.2981 Temp     =       300.8148 
PotEng   =   -374468.7451 E_bond   =     20612.3867 E_angle  =     88273.1486 
E_dihed  =     42000.2655 E_impro  =      1765.1263 E_vdwl   =    -16257.1972 
E_coul   =   1666400.0065 E_long   =  -2177262.4816 Press    =       125.9212 
Volume   =   2467812.5738 
---------------- Step     5700 ----- CPU =     70.0096 (sec) ----------------
TotEng   =   -201562.8521 KinEng   =    172457.7670 Temp     =       300.5960 
PotEng   =   -374020.6192 E_bond   =     20697.4398 E_angle  =     88746.3622 
E_dihed  =     41997.8285 E_impro  =      1762.0734 E_vdwl   =    -16400.9811 
E_coul   =   1666467.3532 E_long   =  -2177290.6951 Press    =        71.3442 
Volume   =   2468007.1407 
---------------- Step     5750 ----- CPU =     70.6178 (sec) ----------------
TotEng   =   -201493.3564 KinEng   =    172419.4376 Temp     =       300.5292 
PotEng   =   -373912.7940 E_bond   =     20667.8578 E_angle  =     88355.5848 
E_dihed  =     42127.8645 E_impro  =      1761.7555 E_vdwl   =    -16702.5725 
E_coul   =   1667133.1983 E_long   =  -2177256.4824 Press    =       -87.2329 
Volume   =   2468293.2548 
---------------- Step     5800 ----- CPU =     71.2300 (sec) ----------------
TotEng   =   -201586.1020 KinEng   =    172193.3528 Temp     =       300.1351 
PotEng   =   -373779.4548 E_bond   =     20958.8745 E_angle  =     88595.9378 
E_dihed  =     42171.6219 E_impro  =      1810.4488 E_vdwl   =    -16862.6325 
E_coul   =   1666820.3477 E_long   =  -2177274.0529 Press    =      -119.7489 
Volume   =   2468650.9417 
---------------- Step     5850 ----- CPU =     71.8530 (sec) ----------------
TotEng   =   -202036.1295 KinEng   =    172006.6428 Temp     =       299.8097 
PotEng   =   -374042.7723 E_bond   =     20522.6532 E_angle  =     88609.7092 
E_dihed  =     42248.3303 E_impro  =      1795.6816 E_vdwl   =    -16401.9763 
E_coul   =   1666492.0702 E_long   =  -2177309.2405 Press    =       116.1987 
Volume   =   2468766.2216 
---------------- Step     5900 ----- CPU =     72.4630 (sec) ----------------
TotEng   =   -202353.5353 KinEng   =    171731.9100 Temp     =       299.3308 
PotEng   =   -374085.4453 E_bond   =     20747.5082 E_angle  =     88752.0570 
E_dihed  =     42068.1370 E_impro  =      1789.9546 E_vdwl   =    -16212.8730 
E_coul   =   1666083.8713 E_long   =  -2177314.1004 Press    =       -22.8276 
Volume   =   2468627.0669 
---------------- Step     5950 ----- CPU =     73.0765 (sec) ----------------
TotEng   =   -202267.9099 KinEng   =    171713.4594 Temp     =       299.2986 
PotEng   =   -373981.3693 E_bond   =     20544.6481 E_angle  =     88643.9090 
E_dihed  =     41998.7001 E_impro  =      1809.7785 E_vdwl   =    -16362.9969 
E_coul   =   1666670.2483 E_long   =  -2177285.6563 Press    =       164.9838 
Volume   =   2468884.3789 
---------------- Step     6000 ----- CPU =     73.6870 (sec) ----------------
TotEng   =   -201905.6023 KinEng   =    172034.4427 Temp     =       299.8581 
PotEng   =   -373940.0450 E_bond   =     20727.5926 E_angle  =     88410.0031 
E_dihed  =     42087.1748 E_impro  =      1796.5416 E_vdwl   =    -16710.4336 
E_coul   =   1667039.5672 E_long   =  -2177290.4906 Press    =        30.8793 
Volume   =   2469274.3754 
---------------- Step     6050 ----- CPU =     74.2998 (sec) ----------------
TotEng   =   -201476.9424 KinEng   =    172301.6657 Temp     =       300.3239 
PotEng   =   -373778.6081 E_bond   =     20990.6811 E_angle  =     88725.9739 
E_dihed  =     42075.4908 E_impro  =      1764.8773 E_vdwl   =    -16405.6775 
E_coul   =   1666363.3833 E_long   =  -2177293.3371 Press    =         4.9852 
Volume   =   2469612.8447 
---------------- Step     6100 ----- CPU =     74.9102 (sec) ----------------
TotEng   =   -201561.2310 KinEng   =    172122.0172 Temp     =       300.0108 
PotEng   =   -373683.2482 E_bond   =     20938.8034 E_angle  =     88893.1702 
E_dihed  =     42218.9729 E_impro  =      1778.6748 E_vdwl   =    -16398.9236 
E_coul   =   1666184.0047 E_long   =  -2177297.9504 Press    =       -91.7454 
Volume   =   2469959.0243 
---------------- Step     6150 ----- CPU =     75.5230 (sec) ----------------
TotEng   =   -202045.3433 KinEng   =    172119.6775 Temp     =       300.0067 
PotEng   =   -374165.0208 E_bond   =     20662.3454 E_angle  =     88804.8385 
E_dihed  =     42131.2196 E_impro  =      1824.0141 E_vdwl   =    -16573.6339 
E_coul   =   1666267.4658 E_long   =  -2177281.2703 Press    =         1.2609 
Volume   =   2469914.7873 
---------------- Step     6200 ----- CPU =     76.1353 (sec) ----------------
TotEng   =   -202428.8911 KinEng   =    171625.2990 Temp     =       299.1450 
PotEng   =   -374054.1900 E_bond   =     20707.4311 E_angle  =     88524.4016 
E_dihed  =     42099.4762 E_impro  =      1733.2091 E_vdwl   =    -16086.2751 
E_coul   =   1666238.3829 E_long   =  -2177270.8157 Press    =       -59.9336 
Volume   =   2469826.9546 
---------------- Step     6250 ----- CPU =     76.7464 (sec) ----------------
TotEng   =   -202306.4943 KinEng   =    171594.3610 Temp     =       299.0910 
PotEng   =   -373900.8553 E_bond   =     20744.2582 E_angle  =     88744.6970 
E_dihed  =     42259.8803 E_impro  =      1834.2978 E_vdwl   =    -16664.2949 
E_coul   =   1666489.4568 E_long   =  -2177309.1505 Press    =       -93.0433 
Volume   =   2469890.5914 
---------------- Step     6300 ----- CPU =     77.3581 (sec) ----------------
TotEng   =   -201762.4618 KinEng   =    172115.4050 Temp     =       299.9992 
PotEng   =   -373877.8668 E_bond   =     20559.1459 E_angle  =     88850.8376 
E_dihed  =     41994.5327 E_impro  =      1837.0356 E_vdwl   =    -16392.9290 
E_coul   =   1666560.0717 E_long   =  -2177286.5611 Press    =       150.6494 
Volume   =   2469516.2751 
---------------- Step     6350 ----- CPU =     77.9684 (sec) ----------------
TotEng   =   -201348.6299 KinEng   =    172534.1266 Temp     =       300.7291 
PotEng   =   -373882.7565 E_bond   =     20557.5827 E_angle  =     88912.1514 
E_dihed  =     42073.8738 E_impro  =      1810.5415 E_vdwl   =    -16458.4995 
E_coul   =   1666534.8140 E_long   =  -2177313.2204 Press    =        64.7734 
Volume   =   2469423.0208 
---------------- Step     6400 ----- CPU =     78.5782 (sec) ----------------
TotEng   =   -201498.9666 KinEng   =    172162.3250 Temp     =       300.0810 
PotEng   =   -373661.2916 E_bond   =     20783.5453 E_angle  =     88692.2284 
E_dihed  =     42102.9899 E_impro  =      1762.1309 E_vdwl   =    -16806.6238 
E_coul   =   1667091.1511 E_long   =  -2177286.7134 Press    =      -118.6654 
Volume   =   2469469.9785 
---------------- Step     6450 ----- CPU =     79.1899 (sec) ----------------
TotEng   =   -201817.7458 KinEng   =    172015.5048 Temp     =       299.8251 
PotEng   =   -373833.2507 E_bond   =     20747.3176 E_angle  =     88682.2302 
E_dihed  =     42021.4864 E_impro  =      1830.4804 E_vdwl   =    -17061.5798 
E_coul   =   1667215.5607 E_long   =  -2177268.7461 Press    =      -228.2858 
Volume   =   2469447.0228 
---------------- Step     6500 ----- CPU =     79.8009 (sec) ----------------
TotEng   =   -201807.1001 KinEng   =    172171.9938 Temp     =       300.0979 
PotEng   =   -373979.0939 E_bond   =     20757.0102 E_angle  =     88843.2158 
E_dihed  =     42089.6820 E_impro  =      1787.6062 E_vdwl   =    -16590.9729 
E_coul   =   1666444.0078 E_long   =  -2177309.6430 Press    =       161.0329 
Volume   =   2468788.2924 
---------------- Step     6550 ----- CPU =     80.4112 (sec) ----------------
TotEng   =   -201576.4630 KinEng   =    172137.8984 Temp     =       300.0384 
PotEng   =   -373714.3614 E_bond   =     20938.1657 E_angle  =     88703.3471 
E_dihed  =     41972.9451 E_impro  =      1747.4740 E_vdwl   =    -16564.1647 
E_coul   =   1666727.1206 E_long   =  -2177239.2492 Press    =       -81.9425 
Volume   =   2468382.6706 
---------------- Step     6600 ----- CPU =     81.0212 (sec) ----------------
TotEng   =   -201681.7069 KinEng   =    172561.8490 Temp     =       300.7774 
PotEng   =   -374243.5559 E_bond   =     20781.6336 E_angle  =     88524.9891 
E_dihed  =     41859.8121 E_impro  =      1812.0505 E_vdwl   =    -16468.3521 
E_coul   =   1666536.6447 E_long   =  -2177290.3337 Press    =        56.9917 
Volume   =   2468127.0161 
---------------- Step     6650 ----- CPU =     81.6409 (sec) ----------------
TotEng   =   -202042.9266 KinEng   =    171873.0925 Temp     =       299.5769 
PotEng   =   -373916.0191 E_bond   =     20955.4973 E_angle  =     88529.6133 
E_dihed  =     42105.8568 E_impro  =      1851.5802 E_vdwl   =    -16766.2977 
E_coul   =   1666708.2378 E_long   =  -2177300.5068 Press    =       -10.9066 
Volume   =   2468108.5419 
---------------- Step     6700 ----- CPU =     82.2376 (sec) ----------------
TotEng   =   -202223.2297 KinEng   =    172282.6773 Temp     =       300.2908 
PotEng   =   -374505.9070 E_bond   =     20884.3941 E_angle  =     88484.3843 
E_dihed  =     41931.9311 E_impro  =      1789.7196 E_vdwl   =    -16589.7921 
E_coul   =   1666258.2076 E_long   =  -2177264.7515 Press    =      -161.0041 
Volume   =   2467762.8781 
---------------- Step     6750 ----- CPU =     82.8462 (sec) ----------------
TotEng   =   -202286.3461 KinEng   =    172005.2305 Temp     =       299.8072 
PotEng   =   -374291.5766 E_bond   =     20849.3514 E_angle  =     88403.0893 
E_dihed  =     42179.5496 E_impro  =      1788.6807 E_vdwl   =    -16028.1702 
E_coul   =   1665807.1222 E_long   =  -2177291.1996 Press    =       -12.8361 
Volume   =   2467306.1661 
---------------- Step     6800 ----- CPU =     83.4552 (sec) ----------------
TotEng   =   -202133.5258 KinEng   =    172213.7695 Temp     =       300.1707 
PotEng   =   -374347.2953 E_bond   =     20717.2019 E_angle  =     88874.8996 
E_dihed  =     41991.6457 E_impro  =      1796.5923 E_vdwl   =    -16325.0695 
E_coul   =   1665885.9003 E_long   =  -2177288.4656 Press    =       -13.7443 
Volume   =   2467034.7199 
---------------- Step     6850 ----- CPU =     84.0650 (sec) ----------------
TotEng   =   -202316.4786 KinEng   =    172356.4102 Temp     =       300.4193 
PotEng   =   -374672.8888 E_bond   =     20613.4486 E_angle  =     88800.3046 
E_dihed  =     41971.1844 E_impro  =      1782.5996 E_vdwl   =    -16752.9845 
E_coul   =   1666198.6469 E_long   =  -2177286.0884 Press    =       -57.8699 
Volume   =   2466488.0160 
---------------- Step     6900 ----- CPU =     84.6754 (sec) ----------------
TotEng   =   -202821.1585 KinEng   =    171606.3760 Temp     =       299.1120 
PotEng   =   -374427.5345 E_bond   =     20620.0113 E_angle  =     88641.6792 
E_dihed  =     42010.5612 E_impro  =      1763.1386 E_vdwl   =    -16475.9279 
E_coul   =   1666290.9814 E_long   =  -2177277.9784 Press    =       103.4823 
Volume   =   2465720.1660 
---------------- Step     6950 ----- CPU =     85.2735 (sec) ----------------
TotEng   =   -203046.6266 KinEng   =    171952.7402 Temp     =       299.7157 
PotEng   =   -374999.3668 E_bond   =     20775.5626 E_angle  =     88356.8224 
E_dihed  =     41961.9832 E_impro  =      1774.6495 E_vdwl   =    -16539.1777 
E_coul   =   1665979.4359 E_long   =  -2177308.6428 Press    =       -66.6878 
Volume   =   2465271.6337 
---------------- Step     7000 ----- CPU =     85.8828 (sec) ----------------
TotEng   =   -202575.0635 KinEng   =    171909.0029 Temp     =       299.6395 
PotEng   =   -374484.0664 E_bond   =     20778.7133 E_angle  =     88894.5295 
E_dihed  =     41989.5697 E_impro  =      1784.9433 E_vdwl   =    -16901.0827 
E_coul   =   1666218.7777 E_long   =  -2177249.5172 Press    =       -81.3325 
Volume   =   2465118.5463 
---------------- Step     7050 ----- CPU =     86.4917 (sec) ----------------
TotEng   =   -201962.2008 KinEng   =    172309.2785 Temp     =       300.3372 
PotEng   =   -374271.4793 E_bond   =     20712.1772 E_angle  =     88598.2387 
E_dihed  =     42167.8897 E_impro  =      1817.6108 E_vdwl   =    -16251.0246 
E_coul   =   1665962.9321 E_long   =  -2177279.3032 Press    =       206.4103 
Volume   =   2464772.2145 
---------------- Step     7100 ----- CPU =     87.1034 (sec) ----------------
TotEng   =   -201804.4454 KinEng   =    172289.8576 Temp     =       300.3033 
PotEng   =   -374094.3030 E_bond   =     20823.9793 E_angle  =     88836.6865 
E_dihed  =     42130.3449 E_impro  =      1786.7502 E_vdwl   =    -16438.3080 
E_coul   =   1666018.1333 E_long   =  -2177251.8892 Press    =       -31.5867 
Volume   =   2464583.9453 
---------------- Step     7150 ----- CPU =     87.7131 (sec) ----------------
TotEng   =   -202152.3065 KinEng   =    172114.2349 Temp     =       299.9972 
PotEng   =   -374266.5414 E_bond   =     20735.5708 E_angle  =     88958.4844 
E_dihed  =     42135.8225 E_impro  =      1776.7369 E_vdwl   =    -16451.7033 
E_coul   =   1665855.6769 E_long   =  -2177277.1297 Press    =      -108.0142 
Volume   =   2464977.4473 
---------------- Step     7200 ----- CPU =     88.3238 (sec) ----------------
TotEng   =   -202920.7759 KinEng   =    172475.5641 Temp     =       300.6270 
PotEng   =   -375396.3400 E_bond   =     20781.8930 E_angle  =     88444.6531 
E_dihed  =     42056.1769 E_impro  =      1811.1440 E_vdwl   =    -16548.3965 
E_coul   =   1665340.1671 E_long   =  -2177281.9776 Press    =        36.8210 
Volume   =   2465653.0344 
---------------- Step     7250 ----- CPU =     88.9362 (sec) ----------------
TotEng   =   -203608.0898 KinEng   =    171785.3305 Temp     =       299.4239 
PotEng   =   -375393.4203 E_bond   =     20638.5822 E_angle  =     88512.9150 
E_dihed  =     42004.9529 E_impro  =      1787.9319 E_vdwl   =    -16826.9110 
E_coul   =   1665793.7450 E_long   =  -2177304.6364 Press    =       -78.1756 
Volume   =   2466589.6752 
---------------- Step     7300 ----- CPU =     89.5499 (sec) ----------------
TotEng   =   -203214.4936 KinEng   =    171442.8206 Temp     =       298.8269 
PotEng   =   -374657.3142 E_bond   =     20712.1886 E_angle  =     88785.5966 
E_dihed  =     41992.8131 E_impro  =      1796.6839 E_vdwl   =    -16106.2485 
E_coul   =   1665451.1309 E_long   =  -2177289.4788 Press    =       -91.8108 
Volume   =   2467321.7009 
---------------- Step     7350 ----- CPU =     90.1633 (sec) ----------------
TotEng   =   -202039.8057 KinEng   =    172233.0930 Temp     =       300.2044 
PotEng   =   -374272.8987 E_bond   =     20799.5249 E_angle  =     88976.4510 
E_dihed  =     42017.4941 E_impro  =      1763.2707 E_vdwl   =    -16313.5610 
E_coul   =   1665754.5698 E_long   =  -2177270.6482 Press    =       -67.5206 
Volume   =   2467945.5237 
---------------- Step     7400 ----- CPU =     90.7751 (sec) ----------------
TotEng   =   -201242.6564 KinEng   =    172723.9103 Temp     =       301.0599 
PotEng   =   -373966.5667 E_bond   =     20598.3211 E_angle  =     89205.5293 
E_dihed  =     41978.3086 E_impro  =      1795.7754 E_vdwl   =    -16097.4558 
E_coul   =   1665818.0309 E_long   =  -2177265.0762 Press    =       111.4447 
Volume   =   2468010.5737 
---------------- Step     7450 ----- CPU =     91.3867 (sec) ----------------
TotEng   =   -201611.3841 KinEng   =    172523.2405 Temp     =       300.7101 
PotEng   =   -374134.6247 E_bond   =     20739.0793 E_angle  =     89017.6749 
E_dihed  =     42098.0845 E_impro  =      1786.4701 E_vdwl   =    -16373.8230 
E_coul   =   1665877.7615 E_long   =  -2177279.8719 Press    =      -135.8534 
Volume   =   2467777.0702 
---------------- Step     7500 ----- CPU =     91.9984 (sec) ----------------
TotEng   =   -202648.1981 KinEng   =    172090.9130 Temp     =       299.9565 
PotEng   =   -374739.1112 E_bond   =     21035.0482 E_angle  =     88480.5634 
E_dihed  =     41939.0342 E_impro  =      1776.8013 E_vdwl   =    -16536.3055 
E_coul   =   1665845.0961 E_long   =  -2177279.3489 Press    =       -61.2431 
Volume   =   2467451.3923 
---------------- Step     7550 ----- CPU =     92.6214 (sec) ----------------
TotEng   =   -203475.4556 KinEng   =    171261.7321 Temp     =       298.5113 
PotEng   =   -374737.1877 E_bond   =     20949.4791 E_angle  =     88407.1791 
E_dihed  =     41962.6894 E_impro  =      1764.4483 E_vdwl   =    -16284.7922 
E_coul   =   1665769.8985 E_long   =  -2177306.0897 Press    =       -91.5762 
Volume   =   2467069.5420 
---------------- Step     7600 ----- CPU =     93.2245 (sec) ----------------
TotEng   =   -203126.2439 KinEng   =    171801.7794 Temp     =       299.4526 
PotEng   =   -374928.0234 E_bond   =     20683.4275 E_angle  =     88792.2224 
E_dihed  =     42025.5357 E_impro  =      1737.1548 E_vdwl   =    -16840.6587 
E_coul   =   1665925.9179 E_long   =  -2177251.6229 Press    =      -156.4826 
Volume   =   2467130.4237 
---------------- Step     7650 ----- CPU =     93.8398 (sec) ----------------
TotEng   =   -202142.3308 KinEng   =    172546.1733 Temp     =       300.7501 
PotEng   =   -374688.5041 E_bond   =     20786.2129 E_angle  =     88637.7263 
E_dihed  =     42155.0300 E_impro  =      1843.6413 E_vdwl   =    -16528.4353 
E_coul   =   1665725.4702 E_long   =  -2177308.1495 Press    =      -101.2883 
Volume   =   2467471.3899 
---------------- Step     7700 ----- CPU =     94.4500 (sec) ----------------
TotEng   =   -201407.4480 KinEng   =    172611.2039 Temp     =       300.8634 
PotEng   =   -374018.6520 E_bond   =     20878.2473 E_angle  =     88788.8256 
E_dihed  =     42324.6760 E_impro  =      1801.7404 E_vdwl   =    -16896.8641 
E_coul   =   1666385.6945 E_long   =  -2177300.9717 Press    =        -6.6573 
Volume   =   2467713.6259 
---------------- Step     7750 ----- CPU =     95.0740 (sec) ----------------
TotEng   =   -201469.7591 KinEng   =    172434.5349 Temp     =       300.5555 
PotEng   =   -373904.2941 E_bond   =     20874.0412 E_angle  =     88733.0467 
E_dihed  =     42237.1576 E_impro  =      1795.5062 E_vdwl   =    -16977.0314 
E_coul   =   1666738.3175 E_long   =  -2177305.3318 Press    =      -207.7216 
Volume   =   2468330.0466 
---------------- Step     7800 ----- CPU =     95.6880 (sec) ----------------
TotEng   =   -202178.1267 KinEng   =    172178.4507 Temp     =       300.1091 
PotEng   =   -374356.5774 E_bond   =     20681.0267 E_angle  =     89081.3874 
E_dihed  =     42071.9771 E_impro  =      1855.1620 E_vdwl   =    -16447.7453 
E_coul   =   1665695.5717 E_long   =  -2177293.9570 Press    =        52.9277 
Volume   =   2468592.4237 
---------------- Step     7850 ----- CPU =     96.3019 (sec) ----------------
TotEng   =   -202817.4361 KinEng   =    171598.8393 Temp     =       299.0988 
PotEng   =   -374416.2754 E_bond   =     20789.4340 E_angle  =     88900.5496 
E_dihed  =     41948.9745 E_impro  =      1813.5905 E_vdwl   =    -16484.2075 
E_coul   =   1665921.2558 E_long   =  -2177305.8722 Press    =      -167.7596 
Volume   =   2468718.5790 
---------------- Step     7900 ----- CPU =     96.9182 (sec) ----------------
TotEng   =   -202965.0296 KinEng   =    171799.7012 Temp     =       299.4490 
PotEng   =   -374764.7308 E_bond   =     20551.2505 E_angle  =     88800.7969 
E_dihed  =     42050.0507 E_impro  =      1808.3840 E_vdwl   =    -16440.5751 
E_coul   =   1665771.1083 E_long   =  -2177305.7460 Press    =        42.6694 
Volume   =   2468798.0710 
---------------- Step     7950 ----- CPU =     97.5355 (sec) ----------------
TotEng   =   -202641.2262 KinEng   =    172283.7842 Temp     =       300.2927 
PotEng   =   -374925.0105 E_bond   =     20585.6339 E_angle  =     88708.2090 
E_dihed  =     42098.6344 E_impro  =      1774.0537 E_vdwl   =    -16435.6109 
E_coul   =   1665640.8958 E_long   =  -2177296.8263 Press    =        51.4004 
Volume   =   2468330.2912 
---------------- Step     8000 ----- CPU =     98.1521 (sec) ----------------
TotEng   =   -202379.1070 KinEng   =    172598.8161 Temp     =       300.8418 
PotEng   =   -374977.9231 E_bond   =     20804.5640 E_angle  =     89007.7826 
E_dihed  =     42091.3184 E_impro  =      1816.9032 E_vdwl   =    -16739.0479 
E_coul   =   1665354.1486 E_long   =  -2177313.5920 Press    =      -192.5678 
Volume   =   2468067.9094 
---------------- Step     8050 ----- CPU =     98.7664 (sec) ----------------
TotEng   =   -202597.0217 KinEng   =    172183.4489 Temp     =       300.1178 
PotEng   =   -374780.4705 E_bond   =     20817.4356 E_angle  =     88707.5623 
E_dihed  =     42001.6785 E_impro  =      1818.2659 E_vdwl   =    -16463.0214 
E_coul   =   1665631.6518 E_long   =  -2177294.0432 Press    =        16.0417 
Volume   =   2467723.2687 
---------------- Step     8100 ----- CPU =     99.3809 (sec) ----------------
TotEng   =   -202966.1536 KinEng   =    171680.1768 Temp     =       299.2406 
PotEng   =   -374646.3305 E_bond   =     20692.1130 E_angle  =     89038.1662 
E_dihed  =     42167.6837 E_impro  =      1801.4567 E_vdwl   =    -16499.1492 
E_coul   =   1665466.9565 E_long   =  -2177313.5574 Press    =        -8.0911 
Volume   =   2467434.8527 
---------------- Step     8150 ----- CPU =     99.9949 (sec) ----------------
TotEng   =   -203011.9394 KinEng   =    172160.7174 Temp     =       300.0782 
PotEng   =   -375172.6567 E_bond   =     20667.2399 E_angle  =     88577.7489 
E_dihed  =     42275.6597 E_impro  =      1784.4297 E_vdwl   =    -16746.4377 
E_coul   =   1665572.2769 E_long   =  -2177303.5742 Press    =      -155.6929 
Volume   =   2466948.1721 
---------------- Step     8200 ----- CPU =    100.6108 (sec) ----------------
TotEng   =   -202737.4210 KinEng   =    171755.1043 Temp     =       299.3712 
PotEng   =   -374492.5253 E_bond   =     20889.9507 E_angle  =     88688.6009 
E_dihed  =     42302.8091 E_impro  =      1841.6091 E_vdwl   =    -16455.8478 
E_coul   =   1665546.2285 E_long   =  -2177305.8757 Press    =       -71.7174 
Volume   =   2466039.3491 
---------------- Step     8250 ----- CPU =    101.2272 (sec) ----------------
TotEng   =   -202235.1558 KinEng   =    172434.8233 Temp     =       300.5560 
PotEng   =   -374669.9791 E_bond   =     20888.1808 E_angle  =     88644.9061 
E_dihed  =     42112.9125 E_impro  =      1860.5060 E_vdwl   =    -16430.9551 
E_coul   =   1665577.3555 E_long   =  -2177322.8848 Press    =        17.3100 
Volume   =   2465291.4573 
---------------- Step     8300 ----- CPU =    101.8451 (sec) ----------------
TotEng   =   -202000.3319 KinEng   =    172442.7997 Temp     =       300.5699 
PotEng   =   -374443.1316 E_bond   =     20945.4385 E_angle  =     89160.0840 
E_dihed  =     42205.9085 E_impro  =      1850.6821 E_vdwl   =    -16297.1232 
E_coul   =   1665034.0099 E_long   =  -2177342.1313 Press    =       -40.4150 
Volume   =   2465021.2886 
---------------- Step     8350 ----- CPU =    102.4632 (sec) ----------------
TotEng   =   -202434.5833 KinEng   =    172137.2298 Temp     =       300.0373 
PotEng   =   -374571.8131 E_bond   =     20711.8045 E_angle  =     89047.8575 
E_dihed  =     42091.5341 E_impro  =      1785.3982 E_vdwl   =    -16074.9023 
E_coul   =   1665170.9267 E_long   =  -2177304.4317 Press    =       163.9030 
Volume   =   2465050.9507 
---------------- Step     8400 ----- CPU =    103.0907 (sec) ----------------
TotEng   =   -203213.4111 KinEng   =    171985.3877 Temp     =       299.7726 
PotEng   =   -375198.7988 E_bond   =     20587.0162 E_angle  =     88631.1845 
E_dihed  =     42023.1251 E_impro  =      1803.5276 E_vdwl   =    -16640.4791 
E_coul   =   1665755.6246 E_long   =  -2177358.7976 Press    =        34.4496 
Volume   =   2465579.7749 
---------------- Step     8450 ----- CPU =    103.7071 (sec) ----------------
TotEng   =   -203435.1490 KinEng   =    171271.4104 Temp     =       298.5281 
PotEng   =   -374706.5594 E_bond   =     20849.1426 E_angle  =     89249.0126 
E_dihed  =     42045.1264 E_impro  =      1751.0686 E_vdwl   =    -16823.5302 
E_coul   =   1665545.1522 E_long   =  -2177322.5316 Press    =      -102.4870 
Volume   =   2466347.8960 
---------------- Step     8500 ----- CPU =    104.3273 (sec) ----------------
TotEng   =   -202990.9342 KinEng   =    171924.9043 Temp     =       299.6672 
PotEng   =   -374915.8385 E_bond   =     20723.9854 E_angle  =     88966.9537 
E_dihed  =     42174.2535 E_impro  =      1839.1715 E_vdwl   =    -15927.5110 
E_coul   =   1664619.7144 E_long   =  -2177312.4060 Press    =        25.3677 
Volume   =   2466581.8357 
---------------- Step     8550 ----- CPU =    104.9325 (sec) ----------------
TotEng   =   -202519.1427 KinEng   =    172647.9695 Temp     =       300.9275 
PotEng   =   -375167.1122 E_bond   =     20840.5645 E_angle  =     88877.5349 
E_dihed  =     42003.0573 E_impro  =      1805.0056 E_vdwl   =    -15961.7872 
E_coul   =   1664582.9143 E_long   =  -2177314.4016 Press    =       -27.3869 
Volume   =   2466540.5518 
---------------- Step     8600 ----- CPU =    105.5479 (sec) ----------------
TotEng   =   -202478.9728 KinEng   =    172380.3283 Temp     =       300.4610 
PotEng   =   -374859.3011 E_bond   =     20715.9891 E_angle  =     88736.6116 
E_dihed  =     42277.0780 E_impro  =      1811.2110 E_vdwl   =    -16410.5503 
E_coul   =   1665350.2800 E_long   =  -2177339.9205 Press    =       -48.8923 
Volume   =   2466921.6732 
---------------- Step     8650 ----- CPU =    106.1653 (sec) ----------------
TotEng   =   -202532.5928 KinEng   =    171932.8828 Temp     =       299.6811 
PotEng   =   -374465.4756 E_bond   =     20883.5686 E_angle  =     88950.5373 
E_dihed  =     42098.3217 E_impro  =      1839.1536 E_vdwl   =    -16258.2338 
E_coul   =   1665318.5327 E_long   =  -2177297.3557 Press    =      -105.1156 
Volume   =   2467531.8167 
---------------- Step     8700 ----- CPU =    106.7827 (sec) ----------------
TotEng   =   -202399.6021 KinEng   =    172348.7437 Temp     =       300.4059 
PotEng   =   -374748.3457 E_bond   =     20785.0697 E_angle  =     88986.6447 
E_dihed  =     42100.4822 E_impro  =      1808.6927 E_vdwl   =    -16322.0235 
E_coul   =   1665194.8941 E_long   =  -2177302.1057 Press    =        33.3775 
Volume   =   2468215.3412 
---------------- Step     8750 ----- CPU =    107.4095 (sec) ----------------
TotEng   =   -202581.8812 KinEng   =    172160.3544 Temp     =       300.0776 
PotEng   =   -374742.2356 E_bond   =     20758.5443 E_angle  =     89119.8200 
E_dihed  =     42146.3134 E_impro  =      1782.0021 E_vdwl   =    -16158.4875 
E_coul   =   1664913.5578 E_long   =  -2177303.9858 Press    =       -51.8765 
Volume   =   2469136.9772 
---------------- Step     8800 ----- CPU =    108.0244 (sec) ----------------
TotEng   =   -202993.9071 KinEng   =    171982.5237 Temp     =       299.7676 
PotEng   =   -374976.4309 E_bond   =     20658.7843 E_angle  =     88973.9865 
E_dihed  =     41967.1412 E_impro  =      1776.9772 E_vdwl   =    -16517.8838 
E_coul   =   1665466.2232 E_long   =  -2177301.6595 Press    =       -52.9058 
Volume   =   2469798.7068 
---------------- Step     8850 ----- CPU =    108.6421 (sec) ----------------
TotEng   =   -203020.0560 KinEng   =    171898.2659 Temp     =       299.6208 
PotEng   =   -374918.3218 E_bond   =     20842.1429 E_angle  =     88703.7162 
E_dihed  =     42069.0735 E_impro  =      1803.3518 E_vdwl   =    -16337.0835 
E_coul   =   1665293.2663 E_long   =  -2177292.7891 Press    =      -100.7785 
Volume   =   2469939.3113 
---------------- Step     8900 ----- CPU =    109.2564 (sec) ----------------
TotEng   =   -202719.6199 KinEng   =    172121.7193 Temp     =       300.0102 
PotEng   =   -374841.3392 E_bond   =     20764.1091 E_angle  =     88990.9884 
E_dihed  =     42064.1551 E_impro  =      1804.8182 E_vdwl   =    -16298.4485 
E_coul   =   1665121.8538 E_long   =  -2177288.8152 Press    =       -64.9210 
Volume   =   2469590.5570 
---------------- Step     8950 ----- CPU =    109.8710 (sec) ----------------
TotEng   =   -202502.5077 KinEng   =    172121.6736 Temp     =       300.0102 
PotEng   =   -374624.1813 E_bond   =     20825.1184 E_angle  =     88702.3217 
E_dihed  =     42130.6146 E_impro  =      1803.5000 E_vdwl   =    -16265.2864 
E_coul   =   1665457.6440 E_long   =  -2177278.0936 Press    =        -8.7399 
Volume   =   2468672.2774 
---------------- Step     9000 ----- CPU =    110.4865 (sec) ----------------
TotEng   =   -202517.1544 KinEng   =    172422.8745 Temp     =       300.5352 
PotEng   =   -374940.0289 E_bond   =     20889.5545 E_angle  =     89052.6820 
E_dihed  =     41992.8552 E_impro  =      1752.6809 E_vdwl   =    -16664.2365 
E_coul   =   1665332.8593 E_long   =  -2177296.4243 Press    =       -62.5021 
Volume   =   2467678.5785 
---------------- Step     9050 ----- CPU =    111.1022 (sec) ----------------
TotEng   =   -202825.8707 KinEng   =    171977.6332 Temp     =       299.7591 
PotEng   =   -374803.5039 E_bond   =     20564.4526 E_angle  =     89290.8496 
E_dihed  =     42041.0635 E_impro  =      1806.6552 E_vdwl   =    -16217.0133 
E_coul   =   1665045.3538 E_long   =  -2177334.8652 Press    =       -25.0887 
Volume   =   2466560.5048 
---------------- Step     9100 ----- CPU =    111.7177 (sec) ----------------
TotEng   =   -202697.4422 KinEng   =    171920.3163 Temp     =       299.6592 
PotEng   =   -374617.7585 E_bond   =     20801.8574 E_angle  =     88949.0391 
E_dihed  =     42040.1568 E_impro  =      1812.0726 E_vdwl   =    -15896.6782 
E_coul   =   1664992.4967 E_long   =  -2177316.7030 Press    =        73.1398 
Volume   =   2465742.2779 
---------------- Step     9150 ----- CPU =    112.3324 (sec) ----------------
TotEng   =   -202613.6486 KinEng   =    171842.9015 Temp     =       299.5243 
PotEng   =   -374456.5501 E_bond   =     20857.4263 E_angle  =     89197.1781 
E_dihed  =     42034.6017 E_impro  =      1757.9526 E_vdwl   =    -16031.9926 
E_coul   =   1665035.5215 E_long   =  -2177307.2377 Press    =        43.2050 
Volume   =   2464984.7963 
---------------- Step     9200 ----- CPU =    112.9472 (sec) ----------------
TotEng   =   -202766.4786 KinEng   =    172105.5430 Temp     =       299.9820 
PotEng   =   -374872.0216 E_bond   =     20764.3505 E_angle  =     89113.2890 
E_dihed  =     41930.2225 E_impro  =      1789.3727 E_vdwl   =    -16375.8397 
E_coul   =   1665252.8550 E_long   =  -2177346.2716 Press    =         5.7147 
Volume   =   2464232.7125 
---------------- Step     9250 ----- CPU =    113.5623 (sec) ----------------
TotEng   =   -202952.4695 KinEng   =    172274.3515 Temp     =       300.2763 
PotEng   =   -375226.8210 E_bond   =     20680.6524 E_angle  =     88858.3555 
E_dihed  =     42236.7871 E_impro  =      1764.4336 E_vdwl   =    -16093.6503 
E_coul   =   1664655.4804 E_long   =  -2177328.8797 Press    =       163.1321 
Volume   =   2463669.9324 
---------------- Step     9300 ----- CPU =    114.1749 (sec) ----------------
TotEng   =   -203344.6197 KinEng   =    171962.5931 Temp     =       299.7329 
PotEng   =   -375307.2128 E_bond   =     20866.3398 E_angle  =     88763.5569 
E_dihed  =     42127.5278 E_impro  =      1804.3722 E_vdwl   =    -15736.5634 
E_coul   =   1664147.6193 E_long   =  -2177280.0653 Press    =       -27.5606 
Volume   =   2463573.4231 
---------------- Step     9350 ----- CPU =    114.7849 (sec) ----------------
TotEng   =   -203558.8611 KinEng   =    171577.3190 Temp     =       299.0613 
PotEng   =   -375136.1801 E_bond   =     20662.5200 E_angle  =     89109.1265 
E_dihed  =     42048.1057 E_impro  =      1781.2141 E_vdwl   =    -16090.5711 
E_coul   =   1664677.4826 E_long   =  -2177324.0579 Press    =        28.2854 
Volume   =   2463797.4894 
---------------- Step     9400 ----- CPU =    115.3940 (sec) ----------------
TotEng   =   -203381.5747 KinEng   =    172000.1767 Temp     =       299.7984 
PotEng   =   -375381.7514 E_bond   =     20951.0938 E_angle  =     89036.0672 
E_dihed  =     42019.0763 E_impro  =      1811.9706 E_vdwl   =    -16315.8282 
E_coul   =   1664424.0990 E_long   =  -2177308.2301 Press    =       -86.2342 
Volume   =   2464395.4413 
---------------- Step     9450 ----- CPU =    116.0034 (sec) ----------------
TotEng   =   -203164.5559 KinEng   =    172313.0517 Temp     =       300.3437 
PotEng   =   -375477.6076 E_bond   =     20687.4974 E_angle  =     88818.9390 
E_dihed  =     41870.1528 E_impro  =      1792.4502 E_vdwl   =    -15787.6464 
E_coul   =   1664468.4687 E_long   =  -2177327.4694 Press    =        23.5840 
Volume   =   2465059.0688 
---------------- Step     9500 ----- CPU =    116.6277 (sec) ----------------
TotEng   =   -202890.0362 KinEng   =    172342.7624 Temp     =       300.3955 
PotEng   =   -375232.7986 E_bond   =     20853.4041 E_angle  =     88946.4611 
E_dihed  =     41999.2371 E_impro  =      1826.9191 E_vdwl   =    -16515.0647 
E_coul   =   1664942.2533 E_long   =  -2177286.0086 Press    =        84.4270 
Volume   =   2466054.4737 
---------------- Step     9550 ----- CPU =    117.2399 (sec) ----------------
TotEng   =   -202709.3227 KinEng   =    172538.8373 Temp     =       300.7373 
PotEng   =   -375248.1600 E_bond   =     20774.7594 E_angle  =     89207.2073 
E_dihed  =     41941.1550 E_impro  =      1813.1805 E_vdwl   =    -17248.6134 
E_coul   =   1665537.7694 E_long   =  -2177273.6182 Press    =      -238.9197 
Volume   =   2466672.3299 
---------------- Step     9600 ----- CPU =    117.8405 (sec) ----------------
TotEng   =   -202653.0743 KinEng   =    172330.7499 Temp     =       300.3746 
PotEng   =   -374983.8242 E_bond   =     20805.4484 E_angle  =     88831.3417 
E_dihed  =     42058.3350 E_impro  =      1841.5076 E_vdwl   =    -16370.1850 
E_coul   =   1665171.8810 E_long   =  -2177322.1528 Press    =       -97.1064 
Volume   =   2466197.4069 
---------------- Step     9650 ----- CPU =    118.4557 (sec) ----------------
TotEng   =   -202606.6279 KinEng   =    172002.3640 Temp     =       299.8022 
PotEng   =   -374608.9919 E_bond   =     20499.6089 E_angle  =     89363.6610 
E_dihed  =     42161.6503 E_impro  =      1821.9736 E_vdwl   =    -16685.1396 
E_coul   =   1665522.8189 E_long   =  -2177293.5651 Press    =       -21.4990 
Volume   =   2465285.5416 
---------------- Step     9700 ----- CPU =    119.0680 (sec) ----------------
TotEng   =   -202420.4827 KinEng   =    172139.9979 Temp     =       300.0421 
PotEng   =   -374560.4806 E_bond   =     21001.3840 E_angle  =     89031.2939 
E_dihed  =     41995.8168 E_impro  =      1802.3285 E_vdwl   =    -16659.9593 
E_coul   =   1665614.6281 E_long   =  -2177345.9726 Press    =       -40.7612 
Volume   =   2464690.1222 
---------------- Step     9750 ----- CPU =    119.6917 (sec) ----------------
TotEng   =   -202487.8776 KinEng   =    171816.9402 Temp     =       299.4790 
PotEng   =   -374304.8178 E_bond   =     20748.4520 E_angle  =     89267.8352 
E_dihed  =     42059.0347 E_impro  =      1850.5041 E_vdwl   =    -16368.0921 
E_coul   =   1665485.0972 E_long   =  -2177347.6491 Press    =       -35.7489 
Volume   =   2464502.8719 
---------------- Step     9800 ----- CPU =    120.2917 (sec) ----------------
TotEng   =   -202820.9749 KinEng   =    172135.4161 Temp     =       300.0341 
PotEng   =   -374956.3910 E_bond   =     20870.3106 E_angle  =     88927.2068 
E_dihed  =     42034.5713 E_impro  =      1810.7790 E_vdwl   =    -16597.0195 
E_coul   =   1665303.8635 E_long   =  -2177306.1026 Press    =       -27.4343 
Volume   =   2464313.7728 
---------------- Step     9850 ----- CPU =    120.9045 (sec) ----------------
TotEng   =   -203178.7741 KinEng   =    171817.1648 Temp     =       299.4794 
PotEng   =   -374995.9389 E_bond   =     20803.0086 E_angle  =     89370.4856 
E_dihed  =     42097.7960 E_impro  =      1823.0243 E_vdwl   =    -16340.5458 
E_coul   =   1664590.4749 E_long   =  -2177340.1825 Press    =       -42.7932 
Volume   =   2464284.9053 
---------------- Step     9900 ----- CPU =    121.5243 (sec) ----------------
TotEng   =   -203293.1738 KinEng   =    172048.1515 Temp     =       299.8820 
PotEng   =   -375341.3252 E_bond   =     20762.6001 E_angle  =     88929.7641 
E_dihed  =     42138.3679 E_impro  =      1823.8259 E_vdwl   =    -16377.3396 
E_coul   =   1664711.9185 E_long   =  -2177330.4622 Press    =       -82.2544 
Volume   =   2464520.9455 
---------------- Step     9950 ----- CPU =    122.1228 (sec) ----------------
TotEng   =   -202998.3872 KinEng   =    171873.5206 Temp     =       299.5776 
PotEng   =   -374871.9078 E_bond   =     20937.9129 E_angle  =     89168.1641 
E_dihed  =     42150.5288 E_impro  =      1790.2934 E_vdwl   =    -16391.4950 
E_coul   =   1664751.2821 E_long   =  -2177278.5941 Press    =        95.8945 
Volume   =   2464683.4896 
---------------- Step    10000 ----- CPU =    122.7464 (sec) ----------------
TotEng   =   -202297.4275 KinEng   =    172342.8409 Temp     =       300.3957 
PotEng   =   -374640.2684 E_bond   =     20715.4108 E_angle  =     89044.4845 
E_dihed  =     42058.6335 E_impro  =      1808.8311 E_vdwl   =    -16654.6060 
E_coul   =   1665682.9567 E_long   =  -2177295.9788 Press    =        83.8873 
Volume   =   2464900.7087 
Loop time of 122.747 on 64 procs for 10000 steps with 256000 atoms

Performance: 14.078 ns/day, 1.705 hours/ns, 81.469 timesteps/s
98.8% CPU use with 64 MPI tasks x 1 OpenMP threads

MPI task timing breakdown:
Section |  min time  |  avg time  |  max time  |%varavg| %total
---------------------------------------------------------------
Pair    | 64.323     | 66.617     | 69.177     |  13.5 | 54.27
Bond    | 3.7731     | 4.0392     | 4.4237     |   9.1 |  3.29
Kspace  | 15.923     | 18.706     | 20.77      |  26.1 | 15.24
Neigh   | 9.4155     | 9.458      | 9.4902     |   0.7 |  7.71
Comm    | 7.2222     | 7.5559     | 7.9488     |   5.4 |  6.16
Output  | 0.012108   | 0.012251   | 0.017065   |   0.5 |  0.01
Modify  | 14.68      | 15.143     | 15.624     |   5.9 | 12.34
Other   |            | 1.215      |            |       |  0.99

Nlocal:           4000 ave        4070 max        3894 min
Histogram: 1 1 4 4 9 11 11 11 8 4
Nghost:        16057.4 ave       16186 max       15920 min
Histogram: 2 2 6 8 12 12 11 5 3 3
Neighs:    1.50363e+06 ave 1.55072e+06 max 1.43466e+06 min
Histogram: 1 1 4 6 9 12 11 4 13 3

Total # of neighbors = 96232063
Ave neighs/atom = 375.9065
Ave special neighs/atom = 7.431875
Neighbor list builds = 1206
Dangerous builds = 0
Total wall time: 0:02:03
Intel(R) VTune(TM) Profiler 2022.2.0 collection completed successfully. Use the "aps --report /home/ubuntu/lammps/bench/aps_result_20220703" command to generate textual and HTML reports for the profiling session.
