LAMMPS (7 Jan 2022)
  using 1 OpenMP thread(s) per MPI task
Reading data file ...
  orthogonal box = (-27.5 -38.5 -36.3646) to (27.5 38.5 36.3615)
  1 by 2 by 2 MPI processor grid
  reading atoms ...
  32000 atoms
  reading velocities ...
  32000 velocities
  scanning bonds ...
  4 = max bonds/atom
  scanning angles ...
  8 = max angles/atom
  scanning dihedrals ...
  18 = max dihedrals/atom
  scanning impropers ...
  2 = max impropers/atom
  reading bonds ...
  27723 bonds
  reading angles ...
  40467 angles
  reading dihedrals ...
  56829 dihedrals
  reading impropers ...
  1034 impropers
Finding 1-2 1-3 1-4 neighbors ...
  special bond factors lj:    0        0        0       
  special bond factors coul:  0        0        0       
     4 = max # of 1-2 neighbors
    12 = max # of 1-3 neighbors
    24 = max # of 1-4 neighbors
    26 = max # of special neighbors
  special bonds CPU = 0.031 seconds
  read_data CPU = 1.355 seconds
Replicating atoms ...
  orthogonal box = (-27.5 -38.5 -36.3646) to (137.5 192.5 181.8137)
  1 by 2 by 2 MPI processor grid
  864000 atoms
  748521 bonds
  1092609 angles
  1534383 dihedrals
  27918 impropers
Finding 1-2 1-3 1-4 neighbors ...
  special bond factors lj:    0        0        0       
  special bond factors coul:  0        0        0       
     4 = max # of 1-2 neighbors
    12 = max # of 1-3 neighbors
    24 = max # of 1-4 neighbors
    26 = max # of special neighbors
  special bonds CPU = 0.264 seconds
  replicate CPU = 0.549 seconds
Finding SHAKE clusters ...
   43659 = # of size 2 clusters
   98091 = # of size 3 clusters
   20169 = # of size 4 clusters
  114291 = # of frozen angles
  find clusters CPU = 0.179 seconds
PPPM initialization ...
  using 12-bit tables for long-range coulomb (../kspace.cpp:340)
  G vector (1/distance) = 0.25235202
  grid = 72 90 90
  stencil order = 7
  estimated absolute RMS force accuracy = 0.029803316
  estimated relative force accuracy = 8.9751802e-05
  using single precision MKL FFT
  3d grid and FFT values/proc = 213616 149040
----------------------------------------------------------
Using INTEL Package without Coprocessor.
Compiler: Intel Classic C++ 20.21.5 / Intel(R) C++ g++ 9.3 mode
SIMD compiler directives: Enabled
Precision: single
----------------------------------------------------------
  generated 2278 of 2278 mixed pair_coeff terms from arithmetic mixing rule
Neighbor list info ...
  update every 1 steps, delay 5 steps, check yes
  max neighbors/atom: 2000, page size: 100000
  master list distance cutoff = 12
  ghost atom cutoff = 12
  binsize = 6, bins = 28 39 37
  1 neighbor lists, perpetual/occasional/extra = 1 0 0
  (1) pair lj/charmm/coul/long/intel, perpetual
      attributes: half, newton on, intel
      pair build: half/bin/newton/intel
      stencil: half/bin/3d
      bin: intel
Setting up Verlet run ...
  Unit style    : real
  Current step  : 0
  Time step     : 2
Per MPI rank memory allocation (min/avg/max) = 2274 | 2279 | 2287 Mbytes
---------------- Step        0 ----- CPU =      0.0000 (sec) ----------------
TotEng   =   -684710.8535 KinEng   =    579010.4447 Temp     =       299.0277 
PotEng   =  -1263721.2981 E_bond   =     68525.6895 E_angle  =    294876.9922 
E_dihed  =    140718.1094 E_impro  =      5764.8978 E_vdwl   =    -62312.9209 
E_coul   =   5692499.4082 E_long   =  -7403793.4743 Press    =      -148.6449 
Volume   =   8315865.9045 
---------------- Step       50 ----- CPU =     45.4785 (sec) ----------------
TotEng   =   -683974.2844 KinEng   =    580525.9122 Temp     =       299.8104 
PotEng   =  -1264500.1966 E_bond   =     66737.3730 E_angle  =    292591.4141 
E_dihed  =    141470.5938 E_impro  =      6132.4222 E_vdwl   =    -53811.0557 
E_coul   =   5686364.2637 E_long   =  -7403985.2077 Press    =       238.8984 
Volume   =   8316862.5383 
---------------- Step      100 ----- CPU =     92.5703 (sec) ----------------
TotEng   =   -682823.7802 KinEng   =    582915.1646 Temp     =       301.0443 
PotEng   =  -1265738.9448 E_bond   =     69335.5566 E_angle  =    291121.0078 
E_dihed  =    140365.8164 E_impro  =      5852.7350 E_vdwl   =    -51271.5596 
E_coul   =   5682702.2285 E_long   =  -7403844.7295 Press    =        14.5795 
Volume   =   8319655.8862 
Loop time of 92.5704 on 4 procs for 100 steps with 864000 atoms

Performance: 0.187 ns/day, 128.570 hours/ns, 1.080 timesteps/s
68.1% CPU use with 4 MPI tasks x 1 OpenMP threads

MPI task timing breakdown:
Section |  min time  |  avg time  |  max time  |%varavg| %total
---------------------------------------------------------------
Pair    | 28.06      | 41.978     | 55.792     | 213.1 | 45.35
Bond    | 1.5428     | 2.3898     | 3.2731     |  53.9 |  2.58
Kspace  | 12.842     | 27.472     | 42.078     | 278.4 | 29.68
Neigh   | 7.2327     | 7.269      | 7.3135     |   1.4 |  7.85
Comm    | 3.9472     | 4.2777     | 4.6859     |  14.4 |  4.62
Output  | 0.00081485 | 0.00083971 | 0.00088697 |   0.0 |  0.00
Modify  | 7.9278     | 8.4603     | 8.9983     |  18.2 |  9.14
Other   |            | 0.7231     |            |       |  0.78

Nlocal:         216000 ave      216966 max      215355 min
Histogram: 1 0 1 1 0 0 0 0 0 1
Nghost:         147373 ave      147738 max      146823 min
Histogram: 1 0 0 0 0 1 0 0 1 1
Neighs:    8.11896e+07 ave 8.18002e+07 max 8.07829e+07 min
Histogram: 1 0 1 1 0 0 0 0 0 1

Total # of neighbors = 3.2475854e+08
Ave neighs/atom = 375.87794
Ave special neighs/atom = 7.431875
Neighbor list builds = 11
Dangerous builds = 0
Total wall time: 0:01:37
Intel(R) VTune(TM) Profiler 2022.2.0 collection completed successfully. Use the "aps --report /home/ubuntu/lammps/bench/aps_result_20220531" command to generate textual and HTML reports for the profiling session.
