LAMMPS (7 Jan 2022)
  using 1 OpenMP thread(s) per MPI task
Reading data file ...
  orthogonal box = (-27.5 -38.5 -36.3646) to (27.5 38.5 36.3615)
  4 by 4 by 4 MPI processor grid
  reading atoms ...
  32000 atoms
  reading velocities ...
  32000 velocities
  scanning bonds ...
  4 = max bonds/atom
  scanning angles ...
  8 = max angles/atom
  scanning dihedrals ...
  18 = max dihedrals/atom
  scanning impropers ...
  2 = max impropers/atom
  reading bonds ...
  27723 bonds
  reading angles ...
  40467 angles
  reading dihedrals ...
  56829 dihedrals
  reading impropers ...
  1034 impropers
Finding 1-2 1-3 1-4 neighbors ...
  special bond factors lj:    0        0        0       
  special bond factors coul:  0        0        0       
     4 = max # of 1-2 neighbors
    12 = max # of 1-3 neighbors
    24 = max # of 1-4 neighbors
    26 = max # of special neighbors
  special bonds CPU = 0.349 seconds
  read_data CPU = 1.146 seconds
Replicating atoms ...
  orthogonal box = (-27.5 -38.5 -36.3646) to (82.5 115.5 109.0876)
  4 by 4 by 4 MPI processor grid
  256000 atoms
  221784 bonds
  323736 angles
  454632 dihedrals
  8272 impropers
Finding 1-2 1-3 1-4 neighbors ...
  special bond factors lj:    0        0        0       
  special bond factors coul:  0        0        0       
     4 = max # of 1-2 neighbors
    12 = max # of 1-3 neighbors
    24 = max # of 1-4 neighbors
    26 = max # of special neighbors
  special bonds CPU = 0.181 seconds
  replicate CPU = 0.357 seconds
Finding SHAKE clusters ...
   12936 = # of size 2 clusters
   29064 = # of size 3 clusters
    5976 = # of size 4 clusters
   33864 = # of frozen angles
  find clusters CPU = 0.005 seconds
PPPM initialization ...
  using 12-bit tables for long-range coulomb (../kspace.cpp:340)
  G vector (1/distance) = 0.25045586
  grid = 45 60 60
  stencil order = 7
  estimated absolute RMS force accuracy = 0.032785255
  estimated relative force accuracy = 9.8731821e-05
  using single precision MKL FFT
  3d grid and FFT values/proc = 9196 2880
----------------------------------------------------------
Using INTEL Package without Coprocessor.
Compiler: Intel Classic C++ 20.21.5 / Intel(R) C++ g++ 9.3 mode
SIMD compiler directives: Enabled
Precision: double
----------------------------------------------------------
  generated 2278 of 2278 mixed pair_coeff terms from arithmetic mixing rule
Neighbor list info ...
  update every 1 steps, delay 5 steps, check yes
  max neighbors/atom: 2000, page size: 100000
  master list distance cutoff = 12
  ghost atom cutoff = 12
  binsize = 6, bins = 19 26 25
  1 neighbor lists, perpetual/occasional/extra = 1 0 0
  (1) pair lj/charmm/coul/long/intel, perpetual
      attributes: half, newton on, intel
      pair build: half/bin/newton/intel
      stencil: half/bin/3d
      bin: intel
Setting up Verlet run ...
  Unit style    : real
  Current step  : 0
  Time step     : 2
Per MPI rank memory allocation (min/avg/max) = 71.45 | 72.09 | 72.74 Mbytes
---------------- Step        0 ----- CPU =      0.0000 (sec) ----------------
TotEng   =   -202863.3552 KinEng   =    171558.6503 Temp     =       299.0288 
PotEng   =   -374422.0055 E_bond   =     20303.9521 E_angle  =     87370.9937 
E_dihed  =     41694.2920 E_impro  =      1708.0927 E_vdwl   =    -18462.9073 
E_coul   =   1670251.2429 E_long   =  -2177287.6715 Press    =      -148.3946 
Volume   =   2463960.2680 
---------------- Step       50 ----- CPU =      1.9221 (sec) ----------------
TotEng   =   -202647.8426 KinEng   =    172007.9876 Temp     =       299.8120 
PotEng   =   -374655.8302 E_bond   =     19774.1150 E_angle  =     86693.3905 
E_dihed  =     41917.3549 E_impro  =      1817.0114 E_vdwl   =    -15944.9635 
E_coul   =   1668430.0385 E_long   =  -2177342.7772 Press    =       238.9746 
Volume   =   2464255.7583 
---------------- Step      100 ----- CPU =      3.6617 (sec) ----------------
TotEng   =   -202321.0383 KinEng   =    172719.8710 Temp     =       301.0528 
PotEng   =   -375040.9093 E_bond   =     20544.0509 E_angle  =     86258.0221 
E_dihed  =     41590.1310 E_impro  =      1734.1350 E_vdwl   =    -15193.6058 
E_coul   =   1667327.4951 E_long   =  -2177301.1377 Press    =        13.7805 
Volume   =   2465083.9361 
Loop time of 3.66179 on 64 procs for 100 steps with 256000 atoms

Performance: 4.719 ns/day, 5.086 hours/ns, 27.309 timesteps/s
85.1% CPU use with 64 MPI tasks x 1 OpenMP threads

MPI task timing breakdown:
Section |  min time  |  avg time  |  max time  |%varavg| %total
---------------------------------------------------------------
Pair    | 0.78789    | 0.8591     | 1.4726     |  12.1 | 23.46
Bond    | 0.044648   | 0.052808   | 0.15804    |   6.8 |  1.44
Kspace  | 1.1115     | 1.8182     | 1.9182     |   9.4 | 49.65
Neigh   | 0.27576    | 0.2932     | 0.31838    |   2.7 |  8.01
Comm    | 0.14173    | 0.21408    | 0.31707    |  11.5 |  5.85
Output  | 0.00011493 | 0.00011769 | 0.00019269 |   0.0 |  0.00
Modify  | 0.32508    | 0.4116     | 0.46146    |   6.5 | 11.24
Other   |            | 0.01267    |            |       |  0.35

Nlocal:           4000 ave        4082 max        3941 min
Histogram: 16 8 0 8 16 0 0 0 8 8
Nghost:        16027.6 ave       16083 max       15942 min
Histogram: 8 0 0 16 0 8 0 0 16 16
Neighs:     1.5035e+06 ave 1.55525e+06 max 1.45846e+06 min
Histogram: 12 4 4 10 10 8 0 0 4 12

Total # of neighbors = 96224275
Ave neighs/atom = 375.87607
Ave special neighs/atom = 7.431875
Neighbor list builds = 11
Dangerous builds = 0
Total wall time: 0:00:05
Intel(R) VTune(TM) Profiler 2022.2.0 collection completed successfully. Use the "aps --report /home/ubuntu/lammps/bench/aps_result_20220531" command to generate textual and HTML reports for the profiling session.
