LAMMPS (7 Jan 2022)
  using 1 OpenMP thread(s) per MPI task
Reading data file ...
  orthogonal box = (-27.5 -38.5 -36.3646) to (27.5 38.5 36.3615)
  2 by 4 by 2 MPI processor grid
  reading atoms ...
  32000 atoms
  reading velocities ...
  32000 velocities
  scanning bonds ...
  4 = max bonds/atom
  scanning angles ...
  8 = max angles/atom
  scanning dihedrals ...
  18 = max dihedrals/atom
  scanning impropers ...
  2 = max impropers/atom
  reading bonds ...
  27723 bonds
  reading angles ...
  40467 angles
  reading dihedrals ...
  56829 dihedrals
  reading impropers ...
  1034 impropers
Finding 1-2 1-3 1-4 neighbors ...
  special bond factors lj:    0        0        0       
  special bond factors coul:  0        0        0       
     4 = max # of 1-2 neighbors
    12 = max # of 1-3 neighbors
    24 = max # of 1-4 neighbors
    26 = max # of special neighbors
  special bonds CPU = 0.005 seconds
  read_data CPU = 0.236 seconds
Replicating atoms ...
  orthogonal box = (-27.5 -38.5 -36.3646) to (192.5 269.5 254.5398)
  2 by 4 by 2 MPI processor grid
  2048000 atoms
  1774272 bonds
  2589888 angles
  3637056 dihedrals
  66176 impropers
Finding 1-2 1-3 1-4 neighbors ...
  special bond factors lj:    0        0        0       
  special bond factors coul:  0        0        0       
     4 = max # of 1-2 neighbors
    12 = max # of 1-3 neighbors
    24 = max # of 1-4 neighbors
    26 = max # of special neighbors
  special bonds CPU = 0.131 seconds
  replicate CPU = 0.241 seconds
Finding SHAKE clusters ...
  103488 = # of size 2 clusters
  232512 = # of size 3 clusters
   47808 = # of size 4 clusters
  270912 = # of frozen angles
  find clusters CPU = 0.062 seconds
PPPM initialization ...
  using 12-bit tables for long-range coulomb (../kspace.cpp:340)
  G vector (1/distance) = 0.25045586
  grid = 90 120 120
  stencil order = 7
  estimated absolute RMS force accuracy = 0.032785255
  estimated relative force accuracy = 9.8731821e-05
  using single precision MKL FFT
  3d grid and FFT values/proc = 128908 86400
----------------------------------------------------------
Using INTEL Package without Coprocessor.
Compiler: Intel Classic C++ 20.21.5 / Intel(R) C++ g++ 9.3 mode
SIMD compiler directives: Enabled
Precision: single
----------------------------------------------------------
  generated 2278 of 2278 mixed pair_coeff terms from arithmetic mixing rule
Neighbor list info ...
  update every 1 steps, delay 5 steps, check yes
  max neighbors/atom: 2000, page size: 100000
  master list distance cutoff = 12
  ghost atom cutoff = 12
  binsize = 6, bins = 37 52 49
  1 neighbor lists, perpetual/occasional/extra = 1 0 0
  (1) pair lj/charmm/coul/long/intel, perpetual
      attributes: half, newton on, intel
      pair build: half/bin/newton/intel
      stencil: half/bin/3d
      bin: intel
Setting up Verlet run ...
  Unit style    : real
  Current step  : 0
  Time step     : 2
Per MPI rank memory allocation (min/avg/max) = 1377 | 1377 | 1377 Mbytes
---------------- Step        0 ----- CPU =      0.0000 (sec) ----------------
TotEng   =  -1622865.6542 KinEng   =   1372469.2022 Temp     =       299.0274 
PotEng   =  -2995334.8564 E_bond   =    162431.7168 E_angle  =    698967.7930 
E_dihed  =    333554.2363 E_impro  =     13664.8931 E_vdwl   =   -147703.6377 
E_coul   =  13362051.9229 E_long   = -17418301.7807 Press    =      -148.4049 
Volume   =  19711682.1440 
---------------- Step       50 ----- CPU =     13.6793 (sec) ----------------
TotEng   =  -1621228.0379 KinEng   =   1376067.5377 Temp     =       299.8114 
PotEng   =  -2997295.5756 E_bond   =    158192.9473 E_angle  =    693548.5664 
E_dihed  =    335338.9258 E_impro  =     14535.9552 E_vdwl   =   -127558.6074 
E_coul   =  13347388.4736 E_long   = -17418741.8365 Press    =       239.0000 
Volume   =  19714045.7894 
---------------- Step      100 ----- CPU =     27.0051 (sec) ----------------
TotEng   =  -1618572.8730 KinEng   =   1381768.4047 Temp     =       301.0535 
PotEng   =  -3000341.2777 E_bond   =    164353.3379 E_angle  =    690067.0781 
E_dihed  =    332721.1328 E_impro  =     13872.8163 E_vdwl   =   -121547.0762 
E_coul   =  13338600.5352 E_long   = -17418409.1018 Press    =        13.8501 
Volume   =  19720670.8264 
Loop time of 27.0052 on 16 procs for 100 steps with 2048000 atoms

Performance: 0.640 ns/day, 37.507 hours/ns, 3.703 timesteps/s
99.6% CPU use with 16 MPI tasks x 1 OpenMP threads

MPI task timing breakdown:
Section |  min time  |  avg time  |  max time  |%varavg| %total
---------------------------------------------------------------
Pair    | 16.836     | 17.066     | 17.253     |   2.3 | 63.20
Bond    | 0.96026    | 0.97579    | 0.98398    |   0.7 |  3.61
Kspace  | 2.8173     | 3.0133     | 3.2444     |   5.6 | 11.16
Neigh   | 2.1525     | 2.1547     | 2.1565     |   0.1 |  7.98
Comm    | 1.0494     | 1.0699     | 1.0924     |   1.7 |  3.96
Output  | 0.00052649 | 0.00054558 | 0.00060214 |   0.0 |  0.00
Modify  | 2.5222     | 2.5708     | 2.6184     |   2.5 |  9.52
Other   |            | 0.1539     |            |       |  0.57

Nlocal:         128000 ave      128001 max      127999 min
Histogram: 5 0 0 0 0 6 0 0 0 5
Nghost:         109937 ave      109938 max      109936 min
Histogram: 5 0 0 0 0 6 0 0 0 5
Neighs:    4.81121e+07 ave 4.81931e+07 max 4.80281e+07 min
Histogram: 4 0 0 4 0 0 4 0 0 4

Total # of neighbors = 7.6979433e+08
Ave neighs/atom = 375.87614
Ave special neighs/atom = 7.431875
Neighbor list builds = 11
Dangerous builds = 0
Total wall time: 0:00:28
Intel(R) VTune(TM) Profiler 2022.2.0 collection completed successfully. Use the "aps --report /home/ubuntu/lammps/bench/aps_result_20220601" command to generate textual and HTML reports for the profiling session.
