LAMMPS (7 Jan 2022)
  using 1 OpenMP thread(s) per MPI task
Reading data file ...
  orthogonal box = (-27.5 -38.5 -36.3646) to (27.5 38.5 36.3615)
  2 by 2 by 2 MPI processor grid
  reading atoms ...
  32000 atoms
  reading velocities ...
  32000 velocities
  scanning bonds ...
  4 = max bonds/atom
  scanning angles ...
  8 = max angles/atom
  scanning dihedrals ...
  18 = max dihedrals/atom
  scanning impropers ...
  2 = max impropers/atom
  reading bonds ...
  27723 bonds
  reading angles ...
  40467 angles
  reading dihedrals ...
  56829 dihedrals
  reading impropers ...
  1034 impropers
Finding 1-2 1-3 1-4 neighbors ...
  special bond factors lj:    0        0        0       
  special bond factors coul:  0        0        0       
     4 = max # of 1-2 neighbors
    12 = max # of 1-3 neighbors
    24 = max # of 1-4 neighbors
    26 = max # of special neighbors
  special bonds CPU = 0.004 seconds
  read_data CPU = 0.239 seconds
Replicating atoms ...
  orthogonal box = (-27.5 -38.5 -36.3646) to (82.5 115.5 109.0876)
  2 by 2 by 2 MPI processor grid
  256000 atoms
  221784 bonds
  323736 angles
  454632 dihedrals
  8272 impropers
Finding 1-2 1-3 1-4 neighbors ...
  special bond factors lj:    0        0        0       
  special bond factors coul:  0        0        0       
     4 = max # of 1-2 neighbors
    12 = max # of 1-3 neighbors
    24 = max # of 1-4 neighbors
    26 = max # of special neighbors
  special bonds CPU = 0.025 seconds
  replicate CPU = 0.053 seconds
Finding SHAKE clusters ...
   12936 = # of size 2 clusters
   29064 = # of size 3 clusters
    5976 = # of size 4 clusters
   33864 = # of frozen angles
  find clusters CPU = 0.011 seconds
PPPM initialization ...
  using 12-bit tables for long-range coulomb (../kspace.cpp:340)
  G vector (1/distance) = 0.25045586
  grid = 45 60 60
  stencil order = 7
  estimated absolute RMS force accuracy = 0.032785255
  estimated relative force accuracy = 9.8731821e-05
  using single precision MKL FFT
  3d grid and FFT values/proc = 41070 21600
----------------------------------------------------------
Using INTEL Package without Coprocessor.
Compiler: Intel Classic C++ 20.21.5 / Intel(R) C++ g++ 9.3 mode
SIMD compiler directives: Enabled
Precision: mixed
----------------------------------------------------------
  generated 2278 of 2278 mixed pair_coeff terms from arithmetic mixing rule
Neighbor list info ...
  update every 1 steps, delay 5 steps, check yes
  max neighbors/atom: 2000, page size: 100000
  master list distance cutoff = 12
  ghost atom cutoff = 12
  binsize = 6, bins = 19 26 25
  1 neighbor lists, perpetual/occasional/extra = 1 0 0
  (1) pair lj/charmm/coul/long/intel, perpetual
      attributes: half, newton on, intel
      pair build: half/bin/newton/intel
      stencil: half/bin/3d
      bin: intel
Setting up Verlet run ...
  Unit style    : real
  Current step  : 0
  Time step     : 2
Per MPI rank memory allocation (min/avg/max) = 369.1 | 369.2 | 369.2 Mbytes
---------------- Step        0 ----- CPU =      0.0000 (sec) ----------------
TotEng   =   -202864.5381 KinEng   =    171558.6503 Temp     =       299.0288 
PotEng   =   -374423.1883 E_bond   =     20303.9370 E_angle  =     87370.9630 
E_dihed  =     41694.2900 E_impro  =      1708.1116 E_vdwl   =    -18462.9090 
E_coul   =   1670250.1019 E_long   =  -2177287.6828 Press    =      -148.4154 
Volume   =   2463960.2680 
---------------- Step       50 ----- CPU =      3.8488 (sec) ----------------
TotEng   =   -202648.9396 KinEng   =    172008.0325 Temp     =       299.8121 
PotEng   =   -374656.9721 E_bond   =     19774.0898 E_angle  =     86693.3668 
E_dihed  =     41917.3343 E_impro  =      1816.9239 E_vdwl   =    -15944.9296 
E_coul   =   1668429.0337 E_long   =  -2177342.7909 Press    =       238.9859 
Volume   =   2464255.7501 
---------------- Step      100 ----- CPU =      7.2382 (sec) ----------------
TotEng   =   -202322.0142 KinEng   =    172719.8667 Temp     =       301.0528 
PotEng   =   -375041.8810 E_bond   =     20544.0172 E_angle  =     86258.1223 
E_dihed  =     41590.1144 E_impro  =      1734.0764 E_vdwl   =    -15193.5517 
E_coul   =   1667326.5411 E_long   =  -2177301.2007 Press    =        13.7794 
Volume   =   2465083.9254 
---------------- Step      150 ----- CPU =     10.6229 (sec) ----------------
TotEng   =   -202065.1065 KinEng   =    172251.8292 Temp     =       300.2370 
PotEng   =   -374316.9356 E_bond   =     20454.0976 E_angle  =     86834.9374 
E_dihed  =     42116.8713 E_impro  =      1624.5701 E_vdwl   =    -16578.3275 
E_coul   =   1668456.5168 E_long   =  -2177225.6015 Press    =       245.4822 
Volume   =   2468149.4655 
---------------- Step      200 ----- CPU =     13.9377 (sec) ----------------
TotEng   =   -200637.8169 KinEng   =    172237.9243 Temp     =       300.2128 
PotEng   =   -372875.7412 E_bond   =     19915.7103 E_angle  =     88600.7937 
E_dihed  =     41769.2063 E_impro  =      1860.1637 E_vdwl   =    -17200.2182 
E_coul   =   1669422.8947 E_long   =  -2177244.2916 Press    =        44.9116 
Volume   =   2471991.1604 
---------------- Step      250 ----- CPU =     17.3142 (sec) ----------------
TotEng   =   -199652.1314 KinEng   =    172658.7241 Temp     =       300.9462 
PotEng   =   -372310.8556 E_bond   =     20334.9751 E_angle  =     88801.2559 
E_dihed  =     41952.9354 E_impro  =      1700.8081 E_vdwl   =    -17042.5530 
E_coul   =   1669312.6741 E_long   =  -2177370.9512 Press    =      -140.0479 
Volume   =   2475151.7196 
---------------- Step      300 ----- CPU =     20.6974 (sec) ----------------
TotEng   =   -200327.0657 KinEng   =    171616.4953 Temp     =       299.1296 
PotEng   =   -371943.5611 E_bond   =     20480.7741 E_angle  =     87357.6691 
E_dihed  =     41772.9328 E_impro  =      1785.1081 E_vdwl   =    -17917.0774 
E_coul   =   1671760.6254 E_long   =  -2177183.5931 Press    =      -415.2383 
Volume   =   2477562.1254 
---------------- Step      350 ----- CPU =     24.0755 (sec) ----------------
TotEng   =   -201567.6079 KinEng   =    172321.5616 Temp     =       300.3586 
PotEng   =   -373889.1695 E_bond   =     20578.9236 E_angle  =     87540.9001 
E_dihed  =     42036.2808 E_impro  =      1663.3371 E_vdwl   =    -17571.8124 
E_coul   =   1669076.8548 E_long   =  -2177213.6535 Press    =      -433.9267 
Volume   =   2478545.6940 
---------------- Step      400 ----- CPU =     27.4591 (sec) ----------------
TotEng   =   -202630.9206 KinEng   =    171563.9970 Temp     =       299.0381 
PotEng   =   -374194.9176 E_bond   =     20243.4017 E_angle  =     87232.0247 
E_dihed  =     41833.9169 E_impro  =      1747.6257 E_vdwl   =    -16513.1725 
E_coul   =   1668555.3941 E_long   =  -2177294.1082 Press    =       153.2674 
Volume   =   2478387.8009 
---------------- Step      450 ----- CPU =     30.8391 (sec) ----------------
TotEng   =   -202839.7282 KinEng   =    171722.9674 Temp     =       299.3152 
PotEng   =   -374562.6956 E_bond   =     19929.2597 E_angle  =     87143.7884 
E_dihed  =     42128.7915 E_impro  =      1788.2091 E_vdwl   =    -16773.3612 
E_coul   =   1668424.3342 E_long   =  -2177203.7173 Press    =       243.6725 
Volume   =   2478134.2752 
---------------- Step      500 ----- CPU =     34.2229 (sec) ----------------
TotEng   =   -200872.1187 KinEng   =    171870.1995 Temp     =       299.5718 
PotEng   =   -372742.3182 E_bond   =     20600.2962 E_angle  =     87308.2560 
E_dihed  =     42120.2239 E_impro  =      1763.7757 E_vdwl   =    -16278.1999 
E_coul   =   1668926.4176 E_long   =  -2177183.0878 Press    =      -119.0391 
Volume   =   2478275.6623 
---------------- Step      550 ----- CPU =     37.6713 (sec) ----------------
TotEng   =   -199020.6129 KinEng   =    173035.4007 Temp     =       301.6028 
PotEng   =   -372056.0136 E_bond   =     20311.7994 E_angle  =     87504.0634 
E_dihed  =     41594.3139 E_impro  =      1863.9515 E_vdwl   =    -16100.7746 
E_coul   =   1670003.6104 E_long   =  -2177232.9777 Press    =       383.0752 
Volume   =   2479350.0845 
---------------- Step      600 ----- CPU =     40.9865 (sec) ----------------
TotEng   =   -198594.5726 KinEng   =    173741.6007 Temp     =       302.8337 
PotEng   =   -372336.1733 E_bond   =     20433.4613 E_angle  =     88027.8446 
E_dihed  =     41915.3984 E_impro  =      1743.8623 E_vdwl   =    -17750.7864 
E_coul   =   1670510.7967 E_long   =  -2177216.7502 Press    =        -2.1414 
Volume   =   2481551.3086 
---------------- Step      650 ----- CPU =     44.3648 (sec) ----------------
TotEng   =   -199880.1034 KinEng   =    172389.2837 Temp     =       300.4766 
PotEng   =   -372269.3871 E_bond   =     20333.0115 E_angle  =     86695.7090 
E_dihed  =     42028.3343 E_impro  =      1726.1149 E_vdwl   =    -16960.2965 
E_coul   =   1671113.5176 E_long   =  -2177205.7778 Press    =      -108.5969 
Volume   =   2483038.4619 
---------------- Step      700 ----- CPU =     47.8003 (sec) ----------------
TotEng   =   -200692.1176 KinEng   =    172150.3604 Temp     =       300.0602 
PotEng   =   -372842.4779 E_bond   =     20099.6600 E_angle  =     87342.0275 
E_dihed  =     41975.9688 E_impro  =      1735.2345 E_vdwl   =    -17186.8303 
E_coul   =   1670429.4181 E_long   =  -2177237.9566 Press    =       121.5062 
Volume   =   2484236.1399 
---------------- Step      750 ----- CPU =     51.1747 (sec) ----------------
TotEng   =   -200693.6536 KinEng   =    171427.4434 Temp     =       298.8001 
PotEng   =   -372121.0971 E_bond   =     20423.7570 E_angle  =     88290.6535 
E_dihed  =     42075.2690 E_impro  =      1710.0954 E_vdwl   =    -17033.6280 
E_coul   =   1669674.6217 E_long   =  -2177261.8655 Press    =       162.9291 
Volume   =   2484617.9828 
---------------- Step      800 ----- CPU =     54.5428 (sec) ----------------
TotEng   =   -200398.8365 KinEng   =    171800.5463 Temp     =       299.4504 
PotEng   =   -372199.3827 E_bond   =     20226.5145 E_angle  =     88128.8570 
E_dihed  =     42261.3923 E_impro  =      1750.6964 E_vdwl   =    -16783.9359 
E_coul   =   1669448.6581 E_long   =  -2177231.5652 Press    =       -26.0918 
Volume   =   2484193.6419 
---------------- Step      850 ----- CPU =     57.9207 (sec) ----------------
TotEng   =   -199776.9446 KinEng   =    172192.9247 Temp     =       300.1343 
PotEng   =   -371969.8693 E_bond   =     20382.9176 E_angle  =     87792.0539 
E_dihed  =     42215.7322 E_impro  =      1787.7773 E_vdwl   =    -16732.6857 
E_coul   =   1669833.1546 E_long   =  -2177248.8192 Press    =        63.2748 
Volume   =   2483071.5752 
---------------- Step      900 ----- CPU =     61.2993 (sec) ----------------
TotEng   =   -199501.3273 KinEng   =    172284.6762 Temp     =       300.2943 
PotEng   =   -371786.0035 E_bond   =     20304.3895 E_angle  =     87768.2273 
E_dihed  =     42324.8496 E_impro  =      1841.2442 E_vdwl   =    -16703.5387 
E_coul   =   1669896.5034 E_long   =  -2177217.6788 Press    =       169.4435 
Volume   =   2481424.8440 
---------------- Step      950 ----- CPU =     64.6783 (sec) ----------------
TotEng   =   -199756.5097 KinEng   =    172390.1332 Temp     =       300.4781 
PotEng   =   -372146.6429 E_bond   =     20422.0396 E_angle  =     88265.2025 
E_dihed  =     42210.7154 E_impro  =      1829.8721 E_vdwl   =    -16683.3423 
E_coul   =   1669028.7504 E_long   =  -2177219.8806 Press    =       -94.5185 
Volume   =   2479653.6511 
---------------- Step     1000 ----- CPU =     68.0569 (sec) ----------------
TotEng   =   -200928.8225 KinEng   =    171755.5292 Temp     =       299.3720 
PotEng   =   -372684.3517 E_bond   =     20631.3331 E_angle  =     87961.7683 
E_dihed  =     41976.8733 E_impro  =      1706.5444 E_vdwl   =    -17261.5885 
E_coul   =   1669559.0431 E_long   =  -2177258.3253 Press    =        27.3806 
Volume   =   2478546.5631 
---------------- Step     1050 ----- CPU =     71.4992 (sec) ----------------
TotEng   =   -201546.0021 KinEng   =    171647.9469 Temp     =       299.1844 
PotEng   =   -373193.9490 E_bond   =     20386.5676 E_angle  =     87782.1072 
E_dihed  =     42012.8601 E_impro  =      1778.8906 E_vdwl   =    -16994.1670 
E_coul   =   1669070.2863 E_long   =  -2177230.4939 Press    =      -223.4579 
Volume   =   2477905.3625 
---------------- Step     1100 ----- CPU =     74.8811 (sec) ----------------
TotEng   =   -201031.4200 KinEng   =    171730.8230 Temp     =       299.3289 
PotEng   =   -372762.2430 E_bond   =     20394.1275 E_angle  =     88023.3011 
E_dihed  =     42010.8712 E_impro  =      1783.6392 E_vdwl   =    -17121.7131 
E_coul   =   1669449.7071 E_long   =  -2177302.1759 Press    =       168.9221 
Volume   =   2477066.4799 
---------------- Step     1150 ----- CPU =     78.2613 (sec) ----------------
TotEng   =   -200065.1160 KinEng   =    172662.3377 Temp     =       300.9525 
PotEng   =   -372727.4537 E_bond   =     20696.3081 E_angle  =     87496.8822 
E_dihed  =     42190.4131 E_impro  =      1755.4716 E_vdwl   =    -16581.7910 
E_coul   =   1669011.6294 E_long   =  -2177296.3672 Press    =       100.7996 
Volume   =   2476305.3219 
---------------- Step     1200 ----- CPU =     81.7046 (sec) ----------------
TotEng   =   -199839.5807 KinEng   =    172748.0315 Temp     =       301.1019 
PotEng   =   -372587.6122 E_bond   =     20723.6616 E_angle  =     87585.0761 
E_dihed  =     42054.4472 E_impro  =      1761.6826 E_vdwl   =    -16435.1802 
E_coul   =   1668982.5660 E_long   =  -2177259.8656 Press    =        19.0257 
Volume   =   2475430.2344 
---------------- Step     1250 ----- CPU =     85.0835 (sec) ----------------
TotEng   =   -200447.2471 KinEng   =    171694.4908 Temp     =       299.2656 
PotEng   =   -372141.7380 E_bond   =     20562.4507 E_angle  =     87946.7190 
E_dihed  =     42016.7558 E_impro  =      1771.2530 E_vdwl   =    -16984.0694 
E_coul   =   1669815.4906 E_long   =  -2177270.3378 Press    =        38.0813 
Volume   =   2474999.1509 
---------------- Step     1300 ----- CPU =     88.4642 (sec) ----------------
TotEng   =   -201109.3138 KinEng   =    171778.3770 Temp     =       299.4118 
PotEng   =   -372887.6908 E_bond   =     20591.5027 E_angle  =     87827.0247 
E_dihed  =     42254.4519 E_impro  =      1805.7053 E_vdwl   =    -16886.6565 
E_coul   =   1668766.2239 E_long   =  -2177245.9427 Press    =      -105.1784 
Volume   =   2474819.5837 
---------------- Step     1350 ----- CPU =     91.8474 (sec) ----------------
TotEng   =   -201114.6791 KinEng   =    171672.9485 Temp     =       299.2280 
PotEng   =   -372787.6276 E_bond   =     20715.8329 E_angle  =     87901.4937 
E_dihed  =     42083.2494 E_impro  =      1823.9450 E_vdwl   =    -16863.1921 
E_coul   =   1668780.3606 E_long   =  -2177229.3172 Press    =       -57.9985 
Volume   =   2474237.4158 
---------------- Step     1400 ----- CPU =     95.1694 (sec) ----------------
TotEng   =   -200765.1123 KinEng   =    172457.5872 Temp     =       300.5957 
PotEng   =   -373222.6995 E_bond   =     20440.2708 E_angle  =     87873.7163 
E_dihed  =     42220.8448 E_impro  =      1825.9569 E_vdwl   =    -16992.1472 
E_coul   =   1668693.9233 E_long   =  -2177285.2644 Press    =        14.6270 
Volume   =   2473285.3974 
---------------- Step     1450 ----- CPU =     98.5569 (sec) ----------------
TotEng   =   -200778.4381 KinEng   =    172278.9754 Temp     =       300.2843 
PotEng   =   -373057.4135 E_bond   =     20433.3494 E_angle  =     88212.3437 
E_dihed  =     42235.2729 E_impro  =      1830.1026 E_vdwl   =    -17520.3913 
E_coul   =   1669041.9078 E_long   =  -2177289.9985 Press    =       -79.7834 
Volume   =   2472127.2893 
---------------- Step     1500 ----- CPU =    101.9479 (sec) ----------------
TotEng   =   -201008.6438 KinEng   =    172209.0704 Temp     =       300.1625 
PotEng   =   -373217.7142 E_bond   =     20721.9773 E_angle  =     87884.8835 
E_dihed  =     42095.8311 E_impro  =      1783.8956 E_vdwl   =    -16993.2937 
E_coul   =   1668546.7640 E_long   =  -2177257.7721 Press    =       -37.8277 
Volume   =   2471054.5349 
---------------- Step     1550 ----- CPU =    105.4001 (sec) ----------------
TotEng   =   -201473.5945 KinEng   =    172083.2651 Temp     =       299.9432 
PotEng   =   -373556.8597 E_bond   =     20551.4625 E_angle  =     87919.5746 
E_dihed  =     42023.0840 E_impro  =      1809.6286 E_vdwl   =    -17075.6655 
E_coul   =   1668498.3929 E_long   =  -2177283.3367 Press    =        51.0940 
Volume   =   2470577.4649 
---------------- Step     1600 ----- CPU =    108.7951 (sec) ----------------
TotEng   =   -201885.6469 KinEng   =    171744.7734 Temp     =       299.3532 
PotEng   =   -373630.4204 E_bond   =     20542.2904 E_angle  =     87665.2220 
E_dihed  =     42114.6791 E_impro  =      1753.0065 E_vdwl   =    -16650.9087 
E_coul   =   1668197.4561 E_long   =  -2177252.1658 Press    =       127.4446 
Volume   =   2470315.9835 
---------------- Step     1650 ----- CPU =    112.1938 (sec) ----------------
TotEng   =   -201891.2542 KinEng   =    171863.4244 Temp     =       299.5600 
PotEng   =   -373754.6785 E_bond   =     20351.9484 E_angle  =     87926.8631 
E_dihed  =     41946.0499 E_impro  =      1771.1092 E_vdwl   =    -16897.0268 
E_coul   =   1668430.6136 E_long   =  -2177284.2361 Press    =       -44.1435 
Volume   =   2470291.0986 
---------------- Step     1700 ----- CPU =    115.5923 (sec) ----------------
TotEng   =   -201371.7612 KinEng   =    172050.4389 Temp     =       299.8860 
PotEng   =   -373422.2001 E_bond   =     20538.5291 E_angle  =     87889.4260 
E_dihed  =     42021.3400 E_impro  =      1752.4649 E_vdwl   =    -17395.9622 
E_coul   =   1669023.2225 E_long   =  -2177251.2203 Press    =        54.5387 
Volume   =   2470223.7038 
---------------- Step     1750 ----- CPU =    118.9947 (sec) ----------------
TotEng   =   -200787.8341 KinEng   =    172277.6578 Temp     =       300.2820 
PotEng   =   -373065.4919 E_bond   =     20284.7197 E_angle  =     88117.4757 
E_dihed  =     42157.1772 E_impro  =      1799.5606 E_vdwl   =    -16188.2250 
E_coul   =   1668056.8228 E_long   =  -2177293.0230 Press    =       189.6334 
Volume   =   2470267.5246 
---------------- Step     1800 ----- CPU =    122.3981 (sec) ----------------
TotEng   =   -200400.6958 KinEng   =    172168.6337 Temp     =       300.0920 
PotEng   =   -372569.3296 E_bond   =     20616.8868 E_angle  =     88131.4994 
E_dihed  =     42153.3994 E_impro  =      1841.2463 E_vdwl   =    -16175.0158 
E_coul   =   1668142.2794 E_long   =  -2177279.6249 Press    =       -67.0564 
Volume   =   2470961.9982 
---------------- Step     1850 ----- CPU =    125.7962 (sec) ----------------
TotEng   =   -200451.6179 KinEng   =    172171.9392 Temp     =       300.0978 
PotEng   =   -372623.5571 E_bond   =     20650.0775 E_angle  =     88316.6874 
E_dihed  =     42093.3934 E_impro  =      1783.7669 E_vdwl   =    -16809.1993 
E_coul   =   1668614.8534 E_long   =  -2177273.1365 Press    =        95.8610 
Volume   =   2472132.9107 
---------------- Step     1900 ----- CPU =    129.1938 (sec) ----------------
TotEng   =   -201162.4325 KinEng   =    172086.7009 Temp     =       299.9492 
PotEng   =   -373249.1334 E_bond   =     20502.7736 E_angle  =     88109.7561 
E_dihed  =     41936.9728 E_impro  =      1773.5797 E_vdwl   =    -16663.8805 
E_coul   =   1668392.1237 E_long   =  -2177300.4589 Press    =        10.1555 
Volume   =   2473057.9973 
---------------- Step     1950 ----- CPU =    132.5928 (sec) ----------------
TotEng   =   -201822.2173 KinEng   =    171476.9837 Temp     =       298.8865 
PotEng   =   -373299.2009 E_bond   =     20361.6631 E_angle  =     88023.9568 
E_dihed  =     42115.8583 E_impro  =      1798.0372 E_vdwl   =    -17011.7203 
E_coul   =   1668722.9634 E_long   =  -2177309.9594 Press    =       -90.3926 
Volume   =   2474052.2889 
---------------- Step     2000 ----- CPU =    135.9874 (sec) ----------------
TotEng   =   -201675.1407 KinEng   =    171968.6054 Temp     =       299.7434 
PotEng   =   -373643.7461 E_bond   =     20541.7977 E_angle  =     88055.3814 
E_dihed  =     41963.8234 E_impro  =      1732.5176 E_vdwl   =    -16906.7629 
E_coul   =   1668284.4995 E_long   =  -2177315.0028 Press    =        62.6878 
Volume   =   2474833.2783 
---------------- Step     2050 ----- CPU =    139.3751 (sec) ----------------
TotEng   =   -200849.5513 KinEng   =    172597.3672 Temp     =       300.8393 
PotEng   =   -373446.9185 E_bond   =     20440.1624 E_angle  =     88246.7072 
E_dihed  =     42181.2163 E_impro  =      1755.2849 E_vdwl   =    -16657.0105 
E_coul   =   1667850.4046 E_long   =  -2177263.6834 Press    =       -53.9197 
Volume   =   2475358.5731 
---------------- Step     2100 ----- CPU =    142.7646 (sec) ----------------
TotEng   =   -200541.6571 KinEng   =    172502.7977 Temp     =       300.6745 
PotEng   =   -373044.4548 E_bond   =     20664.4045 E_angle  =     88130.0743 
E_dihed  =     42054.8100 E_impro  =      1830.9868 E_vdwl   =    -16818.5576 
E_coul   =   1668380.8064 E_long   =  -2177286.9792 Press    =      -174.5788 
Volume   =   2475106.7058 
---------------- Step     2150 ----- CPU =    146.1524 (sec) ----------------
TotEng   =   -200955.1346 KinEng   =    171726.2331 Temp     =       299.3209 
PotEng   =   -372681.3677 E_bond   =     20523.7620 E_angle  =     88299.2642 
E_dihed  =     42179.4905 E_impro  =      1755.6060 E_vdwl   =    -16338.0922 
E_coul   =   1668192.6275 E_long   =  -2177294.0255 Press    =       155.0838 
Volume   =   2474486.1944 
---------------- Step     2200 ----- CPU =    149.5478 (sec) ----------------
TotEng   =   -201559.3168 KinEng   =    171599.2671 Temp     =       299.0996 
PotEng   =   -373158.5840 E_bond   =     20611.1000 E_angle  =     88300.9707 
E_dihed  =     42071.0776 E_impro  =      1784.9721 E_vdwl   =    -17120.9713 
E_coul   =   1668511.4564 E_long   =  -2177317.1894 Press    =       -27.0414 
Volume   =   2473924.0308 
---------------- Step     2250 ----- CPU =    152.9488 (sec) ----------------
TotEng   =   -201864.0608 KinEng   =    171741.8114 Temp     =       299.3481 
PotEng   =   -373605.8722 E_bond   =     20535.3929 E_angle  =     87828.2785 
E_dihed  =     42243.6927 E_impro  =      1773.5569 E_vdwl   =    -16691.7235 
E_coul   =   1668000.5350 E_long   =  -2177295.6046 Press    =       109.5126 
Volume   =   2472997.3554 
---------------- Step     2300 ----- CPU =    156.4136 (sec) ----------------
TotEng   =   -201454.8075 KinEng   =    172159.1184 Temp     =       300.0754 
PotEng   =   -373613.9259 E_bond   =     20465.6495 E_angle  =     87748.1275 
E_dihed  =     42152.9670 E_impro  =      1773.8250 E_vdwl   =    -16591.3694 
E_coul   =   1668104.6053 E_long   =  -2177267.7308 Press    =      -135.5349 
Volume   =   2472026.6261 
---------------- Step     2350 ----- CPU =    159.8204 (sec) ----------------
TotEng   =   -200719.8955 KinEng   =    172176.6788 Temp     =       300.1060 
PotEng   =   -372896.5742 E_bond   =     20627.5743 E_angle  =     88425.1458 
E_dihed  =     42187.6636 E_impro  =      1793.5919 E_vdwl   =    -16278.1178 
E_coul   =   1667631.1930 E_long   =  -2177283.6250 Press    =       124.9293 
Volume   =   2470884.6411 
---------------- Step     2400 ----- CPU =    163.2286 (sec) ----------------
TotEng   =   -200455.8541 KinEng   =    172723.9881 Temp     =       301.0600 
PotEng   =   -373179.8422 E_bond   =     20550.5691 E_angle  =     88162.4174 
E_dihed  =     42137.0668 E_impro  =      1794.1503 E_vdwl   =    -17342.3787 
E_coul   =   1668777.5146 E_long   =  -2177259.1818 Press    =       158.1267 
Volume   =   2470495.0630 
---------------- Step     2450 ----- CPU =    166.6317 (sec) ----------------
TotEng   =   -201022.9500 KinEng   =    172313.4810 Temp     =       300.3445 
PotEng   =   -373336.4310 E_bond   =     20477.8445 E_angle  =     88172.5235 
E_dihed  =     42173.5922 E_impro  =      1850.8569 E_vdwl   =    -16750.9345 
E_coul   =   1668016.7030 E_long   =  -2177277.0166 Press    =        27.1018 
Volume   =   2470509.8329 
---------------- Step     2500 ----- CPU =    170.0355 (sec) ----------------
TotEng   =   -201603.7821 KinEng   =    171919.8378 Temp     =       299.6584 
PotEng   =   -373523.6199 E_bond   =     20436.7892 E_angle  =     88244.2020 
E_dihed  =     42092.6818 E_impro  =      1801.9907 E_vdwl   =    -16725.7128 
E_coul   =   1667906.4306 E_long   =  -2177280.0013 Press    =        82.5120 
Volume   =   2470679.1826 
---------------- Step     2550 ----- CPU =    173.4383 (sec) ----------------
TotEng   =   -202063.9334 KinEng   =    171458.1115 Temp     =       298.8536 
PotEng   =   -373522.0449 E_bond   =     20658.7262 E_angle  =     88006.2185 
E_dihed  =     42032.3134 E_impro  =      1790.7936 E_vdwl   =    -16563.6088 
E_coul   =   1667798.5323 E_long   =  -2177245.0202 Press    =       162.8844 
Volume   =   2471066.6772 
---------------- Step     2600 ----- CPU =    176.8371 (sec) ----------------
TotEng   =   -201702.3588 KinEng   =    171955.8851 Temp     =       299.7212 
PotEng   =   -373658.2438 E_bond   =     20639.5326 E_angle  =     87883.4273 
E_dihed  =     42021.8825 E_impro  =      1787.0803 E_vdwl   =    -16816.2708 
E_coul   =   1668060.1254 E_long   =  -2177234.0211 Press    =       -40.0068 
Volume   =   2471381.8410 
---------------- Step     2650 ----- CPU =    180.2368 (sec) ----------------
TotEng   =   -200877.7427 KinEng   =    172723.9690 Temp     =       301.0600 
PotEng   =   -373601.7117 E_bond   =     20489.7460 E_angle  =     88223.8394 
E_dihed  =     42111.9822 E_impro  =      1775.9611 E_vdwl   =    -17015.0240 
E_coul   =   1668108.2146 E_long   =  -2177296.4310 Press    =        49.9984 
Volume   =   2471756.0595 
---------------- Step     2700 ----- CPU =    183.6922 (sec) ----------------
TotEng   =   -200520.4593 KinEng   =    172537.6226 Temp     =       300.7352 
PotEng   =   -373058.0819 E_bond   =     20697.2892 E_angle  =     88185.7618 
E_dihed  =     41970.3096 E_impro  =      1801.6532 E_vdwl   =    -16491.2586 
E_coul   =   1668051.5708 E_long   =  -2177273.4079 Press    =      -125.8527 
Volume   =   2472489.9293 
---------------- Step     2750 ----- CPU =    187.0828 (sec) ----------------
TotEng   =   -200523.9309 KinEng   =    172190.6695 Temp     =       300.1304 
PotEng   =   -372714.6004 E_bond   =     20671.5435 E_angle  =     88612.5089 
E_dihed  =     42062.8020 E_impro  =      1797.5375 E_vdwl   =    -16965.9220 
E_coul   =   1668400.2043 E_long   =  -2177293.2746 Press    =      -106.6286 
Volume   =   2473776.5204 
---------------- Step     2800 ----- CPU =    190.4789 (sec) ----------------
TotEng   =   -201027.3585 KinEng   =    172380.0752 Temp     =       300.4606 
PotEng   =   -373407.4338 E_bond   =     20492.6829 E_angle  =     88354.2230 
E_dihed  =     41924.2294 E_impro  =      1762.5771 E_vdwl   =    -17001.9801 
E_coul   =   1668359.7385 E_long   =  -2177298.9045 Press    =       -53.6662 
Volume   =   2474574.8876 
---------------- Step     2850 ----- CPU =    193.8666 (sec) ----------------
TotEng   =   -201591.6943 KinEng   =    172085.0550 Temp     =       299.9463 
PotEng   =   -373676.7493 E_bond   =     20446.2122 E_angle  =     88073.0652 
E_dihed  =     42065.7177 E_impro  =      1797.4667 E_vdwl   =    -16995.1885 
E_coul   =   1668209.4778 E_long   =  -2177273.5004 Press    =      -153.5258 
Volume   =   2474740.8218 
---------------- Step     2900 ----- CPU =    197.2589 (sec) ----------------
TotEng   =   -201629.8338 KinEng   =    171342.1722 Temp     =       298.6515 
PotEng   =   -372972.0060 E_bond   =     20553.2748 E_angle  =     88548.2161 
E_dihed  =     42080.1898 E_impro  =      1756.4989 E_vdwl   =    -17079.8311 
E_coul   =   1668485.4854 E_long   =  -2177315.8398 Press    =        37.5863 
Volume   =   2474453.6493 
---------------- Step     2950 ----- CPU =    200.6561 (sec) ----------------
TotEng   =   -201284.4856 KinEng   =    172233.4920 Temp     =       300.2051 
PotEng   =   -373517.9776 E_bond   =     20718.0246 E_angle  =     88223.9252 
E_dihed  =     42269.2506 E_impro  =      1756.9375 E_vdwl   =    -17145.3457 
E_coul   =   1667964.1887 E_long   =  -2177304.9584 Press    =       -81.0452 
Volume   =   2473890.7941 
---------------- Step     3000 ----- CPU =    204.0534 (sec) ----------------
TotEng   =   -200776.4432 KinEng   =    172824.2209 Temp     =       301.2347 
PotEng   =   -373600.6641 E_bond   =     20443.3932 E_angle  =     88386.5356 
E_dihed  =     41944.1814 E_impro  =      1820.9334 E_vdwl   =    -16929.5588 
E_coul   =   1668009.5362 E_long   =  -2177275.6851 Press    =       -53.5795 
Volume   =   2472903.7161 
---------------- Step     3050 ----- CPU =    207.4517 (sec) ----------------
TotEng   =   -200621.4594 KinEng   =    172384.9606 Temp     =       300.4691 
PotEng   =   -373006.4200 E_bond   =     20569.1467 E_angle  =     88243.2296 
E_dihed  =     42187.4441 E_impro  =      1821.0105 E_vdwl   =    -16091.3416 
E_coul   =   1667536.7155 E_long   =  -2177272.6247 Press    =       132.9511 
Volume   =   2471651.6827 
---------------- Step     3100 ----- CPU =    210.8533 (sec) ----------------
TotEng   =   -201053.4501 KinEng   =    172845.4822 Temp     =       301.2718 
PotEng   =   -373898.9323 E_bond   =     20507.5671 E_angle  =     88404.7552 
E_dihed  =     42022.2007 E_impro  =      1818.3542 E_vdwl   =    -16798.6365 
E_coul   =   1667425.2269 E_long   =  -2177278.3997 Press    =         1.7336 
Volume   =   2470630.7131 
---------------- Step     3150 ----- CPU =    214.2544 (sec) ----------------
TotEng   =   -201878.2026 KinEng   =    171823.2966 Temp     =       299.4901 
PotEng   =   -373701.4993 E_bond   =     20416.5564 E_angle  =     88273.4511 
E_dihed  =     42062.9806 E_impro  =      1847.9286 E_vdwl   =    -16430.4168 
E_coul   =   1667449.8985 E_long   =  -2177321.8976 Press    =       133.8120 
Volume   =   2469660.9155 
---------------- Step     3200 ----- CPU =    217.6603 (sec) ----------------
TotEng   =   -202143.1698 KinEng   =    171927.0908 Temp     =       299.6710 
PotEng   =   -374070.2606 E_bond   =     20534.2612 E_angle  =     87959.1918 
E_dihed  =     42097.2762 E_impro  =      1854.2305 E_vdwl   =    -15938.2774 
E_coul   =   1666697.1751 E_long   =  -2177274.1178 Press    =        72.6863 
Volume   =   2469106.8255 
---------------- Step     3250 ----- CPU =    221.0675 (sec) ----------------
TotEng   =   -201908.0933 KinEng   =    171888.9617 Temp     =       299.6045 
PotEng   =   -373797.0550 E_bond   =     20397.0136 E_angle  =     88303.6765 
E_dihed  =     42174.2396 E_impro  =      1769.5299 E_vdwl   =    -16309.3936 
E_coul   =   1667187.3178 E_long   =  -2177319.4389 Press    =        60.5320 
Volume   =   2469122.9324 
---------------- Step     3300 ----- CPU =    224.5198 (sec) ----------------
TotEng   =   -201291.9401 KinEng   =    172260.4592 Temp     =       300.2521 
PotEng   =   -373552.3993 E_bond   =     20764.8238 E_angle  =     88160.1852 
E_dihed  =     42204.7312 E_impro  =      1811.5575 E_vdwl   =    -16365.6969 
E_coul   =   1667164.0150 E_long   =  -2177292.0150 Press    =       -17.4878 
Volume   =   2469723.9359 
---------------- Step     3350 ----- CPU =    227.9204 (sec) ----------------
TotEng   =   -201059.7210 KinEng   =    172338.4215 Temp     =       300.3879 
PotEng   =   -373398.1425 E_bond   =     20611.7177 E_angle  =     88285.8589 
E_dihed  =     42172.1250 E_impro  =      1827.8686 E_vdwl   =    -16510.7726 
E_coul   =   1667506.6168 E_long   =  -2177291.5569 Press    =       159.8509 
Volume   =   2470698.8771 
---------------- Step     3400 ----- CPU =    231.3230 (sec) ----------------
TotEng   =   -201065.9058 KinEng   =    172209.7263 Temp     =       300.1636 
PotEng   =   -373275.6321 E_bond   =     20627.1203 E_angle  =     88446.2795 
E_dihed  =     42286.9429 E_impro  =      1821.1410 E_vdwl   =    -17016.9721 
E_coul   =   1667876.8373 E_long   =  -2177316.9811 Press    =       -51.8733 
Volume   =   2471839.7846 
---------------- Step     3450 ----- CPU =    234.7214 (sec) ----------------
TotEng   =   -201475.8740 KinEng   =    172056.6161 Temp     =       299.8968 
PotEng   =   -373532.4901 E_bond   =     20624.9175 E_angle  =     87966.5489 
E_dihed  =     42155.6208 E_impro  =      1807.9242 E_vdwl   =    -16491.9320 
E_coul   =   1667692.3779 E_long   =  -2177287.9474 Press    =       -37.2457 
Volume   =   2472695.9727 
---------------- Step     3500 ----- CPU =    238.1260 (sec) ----------------
TotEng   =   -201674.7366 KinEng   =    172028.2310 Temp     =       299.8473 
PotEng   =   -373702.9676 E_bond   =     20661.3054 E_angle  =     88073.3389 
E_dihed  =     42169.2364 E_impro  =      1809.2999 E_vdwl   =    -16773.3477 
E_coul   =   1667680.2409 E_long   =  -2177323.0414 Press    =       -27.8769 
Volume   =   2472980.5648 
---------------- Step     3550 ----- CPU =    241.5308 (sec) ----------------
TotEng   =   -201264.7305 KinEng   =    172185.6374 Temp     =       300.1216 
PotEng   =   -373450.3679 E_bond   =     20744.9869 E_angle  =     88158.3998 
E_dihed  =     42041.6110 E_impro  =      1773.0227 E_vdwl   =    -16567.9557 
E_coul   =   1667663.2554 E_long   =  -2177263.6880 Press    =      -131.3247 
Volume   =   2473078.6393 
---------------- Step     3600 ----- CPU =    244.9369 (sec) ----------------
TotEng   =   -200686.3621 KinEng   =    172670.6745 Temp     =       300.9671 
PotEng   =   -373357.0367 E_bond   =     20704.6785 E_angle  =     88389.0276 
E_dihed  =     42166.0533 E_impro  =      1792.5390 E_vdwl   =    -16479.9044 
E_coul   =   1667363.1704 E_long   =  -2177292.6011 Press    =       -16.5303 
Volume   =   2472764.4647 
---------------- Step     3650 ----- CPU =    248.3475 (sec) ----------------
TotEng   =   -200987.8810 KinEng   =    172171.4210 Temp     =       300.0969 
PotEng   =   -373159.3020 E_bond   =     20671.3184 E_angle  =     88559.0595 
E_dihed  =     42205.7387 E_impro  =      1772.1846 E_vdwl   =    -16649.2604 
E_coul   =   1667575.6039 E_long   =  -2177293.9468 Press    =        70.0944 
Volume   =   2472097.0380 
---------------- Step     3700 ----- CPU =    251.6922 (sec) ----------------
TotEng   =   -201653.7928 KinEng   =    171843.9633 Temp     =       299.5261 
PotEng   =   -373497.7561 E_bond   =     20697.6566 E_angle  =     88310.7108 
E_dihed  =     42123.6221 E_impro  =      1795.2882 E_vdwl   =    -16306.9627 
E_coul   =   1667179.1039 E_long   =  -2177297.1750 Press    =       -10.5943 
Volume   =   2471495.3244 
---------------- Step     3750 ----- CPU =    255.1048 (sec) ----------------
TotEng   =   -202084.2545 KinEng   =    171881.2182 Temp     =       299.5910 
PotEng   =   -373965.4727 E_bond   =     20519.1101 E_angle  =     88088.8743 
E_dihed  =     42185.4919 E_impro  =      1792.6182 E_vdwl   =    -16658.4680 
E_coul   =   1667420.8965 E_long   =  -2177313.9957 Press    =       -13.5703 
Volume   =   2470767.0960 
---------------- Step     3800 ----- CPU =    258.5188 (sec) ----------------
TotEng   =   -201962.4133 KinEng   =    171881.6008 Temp     =       299.5917 
PotEng   =   -373844.0140 E_bond   =     20826.3498 E_angle  =     88190.2698 
E_dihed  =     42351.1917 E_impro  =      1831.9643 E_vdwl   =    -16588.8808 
E_coul   =   1666832.5501 E_long   =  -2177287.4589 Press    =        47.2314 
Volume   =   2470345.3304 
---------------- Step     3850 ----- CPU =    261.9304 (sec) ----------------
TotEng   =   -201498.5778 KinEng   =    172547.6621 Temp     =       300.7527 
PotEng   =   -374046.2399 E_bond   =     20586.5602 E_angle  =     87986.2528 
E_dihed  =     42220.8647 E_impro  =      1837.5461 E_vdwl   =    -16645.3223 
E_coul   =   1667255.8392 E_long   =  -2177287.9806 Press    =        60.0806 
Volume   =   2470170.5515 
---------------- Step     3900 ----- CPU =    265.3403 (sec) ----------------
TotEng   =   -201377.1132 KinEng   =    172718.1832 Temp     =       301.0499 
PotEng   =   -374095.2964 E_bond   =     20697.4931 E_angle  =     88106.7219 
E_dihed  =     42112.7567 E_impro  =      1749.7509 E_vdwl   =    -16114.8067 
E_coul   =   1666623.7092 E_long   =  -2177270.9215 Press    =       -88.7065 
Volume   =   2470350.8694 
---------------- Step     3950 ----- CPU =    268.7438 (sec) ----------------
TotEng   =   -201585.3657 KinEng   =    171675.3364 Temp     =       299.2322 
PotEng   =   -373260.7021 E_bond   =     20789.0389 E_angle  =     88383.6462 
E_dihed  =     42257.4682 E_impro  =      1810.0694 E_vdwl   =    -16518.6706 
E_coul   =   1667293.8423 E_long   =  -2177276.0965 Press    =       -28.3444 
Volume   =   2470931.0685 
---------------- Step     4000 ----- CPU =    272.1426 (sec) ----------------
TotEng   =   -201627.5266 KinEng   =    172095.6004 Temp     =       299.9647 
PotEng   =   -373723.1270 E_bond   =     20590.4156 E_angle  =     88404.2643 
E_dihed  =     42221.4839 E_impro  =      1812.4164 E_vdwl   =    -16990.5512 
E_coul   =   1667462.5331 E_long   =  -2177223.6891 Press    =      -190.7197 
Volume   =   2471487.8277 
---------------- Step     4050 ----- CPU =    275.5385 (sec) ----------------
TotEng   =   -201536.4440 KinEng   =    172069.7034 Temp     =       299.9196 
PotEng   =   -373606.1474 E_bond   =     20433.5422 E_angle  =     88347.7860 
E_dihed  =     42335.2583 E_impro  =      1850.1268 E_vdwl   =    -16672.0378 
E_coul   =   1667366.8859 E_long   =  -2177267.7088 Press    =         5.5003 
Volume   =   2471380.2130 
---------------- Step     4100 ----- CPU =    278.9322 (sec) ----------------
TotEng   =   -201428.4956 KinEng   =    172297.9730 Temp     =       300.3174 
PotEng   =   -373726.4686 E_bond   =     20828.8758 E_angle  =     88312.0541 
E_dihed  =     42203.5875 E_impro  =      1789.0159 E_vdwl   =    -16764.5966 
E_coul   =   1667182.1477 E_long   =  -2177277.5530 Press    =      -138.7093 
Volume   =   2470570.2311 
---------------- Step     4150 ----- CPU =    282.3309 (sec) ----------------
TotEng   =   -201519.3636 KinEng   =    172076.4973 Temp     =       299.9314 
PotEng   =   -373595.8608 E_bond   =     20646.7642 E_angle  =     88238.8080 
E_dihed  =     42443.5782 E_impro  =      1781.5124 E_vdwl   =    -16646.8270 
E_coul   =   1667218.8793 E_long   =  -2177278.5760 Press    =       -14.9227 
Volume   =   2469806.2130 
---------------- Step     4200 ----- CPU =    285.7272 (sec) ----------------
TotEng   =   -201688.9153 KinEng   =    172412.7126 Temp     =       300.5174 
PotEng   =   -374101.6279 E_bond   =     20615.1851 E_angle  =     88442.8915 
E_dihed  =     42317.1894 E_impro  =      1758.3266 E_vdwl   =    -16501.7051 
E_coul   =   1666550.3899 E_long   =  -2177283.9053 Press    =        13.4129 
Volume   =   2469596.4500 
---------------- Step     4250 ----- CPU =    289.1242 (sec) ----------------
TotEng   =   -201965.0494 KinEng   =    171895.5984 Temp     =       299.6161 
PotEng   =   -373860.6478 E_bond   =     20602.1748 E_angle  =     88374.9002 
E_dihed  =     42251.4489 E_impro  =      1775.6811 E_vdwl   =    -16421.8111 
E_coul   =   1666806.4756 E_long   =  -2177249.5172 Press    =        80.3554 
Volume   =   2469782.1539 
---------------- Step     4300 ----- CPU =    292.5162 (sec) ----------------
TotEng   =   -202085.8440 KinEng   =    171962.1862 Temp     =       299.7322 
PotEng   =   -374048.0302 E_bond   =     20646.6601 E_angle  =     88533.8249 
E_dihed  =     42094.1466 E_impro  =      1761.2933 E_vdwl   =    -16883.3640 
E_coul   =   1667082.2125 E_long   =  -2177282.8036 Press    =       -26.8171 
Volume   =   2470345.2750 
---------------- Step     4350 ----- CPU =    295.9097 (sec) ----------------
TotEng   =   -201967.9265 KinEng   =    171700.8075 Temp     =       299.2766 
PotEng   =   -373668.7341 E_bond   =     20781.8742 E_angle  =     88556.3119 
E_dihed  =     42303.0476 E_impro  =      1805.8497 E_vdwl   =    -16857.9680 
E_coul   =   1667047.4039 E_long   =  -2177305.2534 Press    =       -80.3794 
Volume   =   2471048.6467 
---------------- Step     4400 ----- CPU =    299.3028 (sec) ----------------
TotEng   =   -201428.0454 KinEng   =    172630.7282 Temp     =       300.8974 
PotEng   =   -374058.7736 E_bond   =     20440.6158 E_angle  =     88493.4514 
E_dihed  =     42244.4963 E_impro  =      1834.9841 E_vdwl   =    -16697.6008 
E_coul   =   1666919.4790 E_long   =  -2177294.1994 Press    =        52.3802 
Volume   =   2471195.8890 
---------------- Step     4450 ----- CPU =    302.7003 (sec) ----------------
TotEng   =   -201147.9410 KinEng   =    172338.5541 Temp     =       300.3882 
PotEng   =   -373486.4951 E_bond   =     20599.4839 E_angle  =     88591.6804 
E_dihed  =     42278.4692 E_impro  =      1782.7438 E_vdwl   =    -16408.4213 
E_coul   =   1666972.8140 E_long   =  -2177303.2652 Press    =      -101.2071 
Volume   =   2470759.8247 
---------------- Step     4500 ----- CPU =    306.0333 (sec) ----------------
TotEng   =   -201334.9444 KinEng   =    171903.7253 Temp     =       299.6303 
PotEng   =   -373238.6697 E_bond   =     20523.8920 E_angle  =     88453.3357 
E_dihed  =     42325.7143 E_impro  =      1734.9754 E_vdwl   =    -16576.7411 
E_coul   =   1667633.1635 E_long   =  -2177333.0096 Press    =       148.3365 
Volume   =   2470154.5990 
---------------- Step     4550 ----- CPU =    309.4275 (sec) ----------------
TotEng   =   -201431.4875 KinEng   =    172257.9785 Temp     =       300.2477 
PotEng   =   -373689.4661 E_bond   =     20683.9819 E_angle  =     88555.7334 
E_dihed  =     42197.3002 E_impro  =      1770.1702 E_vdwl   =    -16937.6697 
E_coul   =   1667324.1761 E_long   =  -2177283.1582 Press    =        19.5675 
Volume   =   2469715.7065 
---------------- Step     4600 ----- CPU =    312.8864 (sec) ----------------
TotEng   =   -201266.8595 KinEng   =    172500.1899 Temp     =       300.6699 
PotEng   =   -373767.0494 E_bond   =     20611.1685 E_angle  =     88268.5826 
E_dihed  =     42105.2025 E_impro  =      1810.6191 E_vdwl   =    -16509.0725 
E_coul   =   1667231.1025 E_long   =  -2177284.6521 Press    =        49.0521 
Volume   =   2468951.3230 
---------------- Step     4650 ----- CPU =    316.2840 (sec) ----------------
TotEng   =   -201295.7717 KinEng   =    172168.2940 Temp     =       300.0914 
PotEng   =   -373464.0656 E_bond   =     20623.5716 E_angle  =     88544.4975 
E_dihed  =     42097.1039 E_impro  =      1804.3135 E_vdwl   =    -16443.9750 
E_coul   =   1667207.0343 E_long   =  -2177296.6114 Press    =       -23.1064 
Volume   =   2469036.8834 
---------------- Step     4700 ----- CPU =    319.6817 (sec) ----------------
TotEng   =   -201388.9011 KinEng   =    172218.6153 Temp     =       300.1791 
PotEng   =   -373607.5164 E_bond   =     20799.3489 E_angle  =     88688.4750 
E_dihed  =     42017.3235 E_impro  =      1752.3441 E_vdwl   =    -16028.5623 
E_coul   =   1666441.9988 E_long   =  -2177278.4443 Press    =       124.2152 
Volume   =   2469542.2777 
---------------- Step     4750 ----- CPU =    323.0790 (sec) ----------------
TotEng   =   -201722.5449 KinEng   =    172298.7930 Temp     =       300.3189 
PotEng   =   -374021.3379 E_bond   =     20640.9688 E_angle  =     88320.7429 
E_dihed  =     42112.7878 E_impro  =      1785.1448 E_vdwl   =    -16574.9073 
E_coul   =   1666940.9593 E_long   =  -2177247.0343 Press    =       -18.4874 
Volume   =   2470620.3094 
---------------- Step     4800 ----- CPU =    326.4720 (sec) ----------------
TotEng   =   -201881.1135 KinEng   =    172082.3161 Temp     =       299.9416 
PotEng   =   -373963.4296 E_bond   =     20599.5026 E_angle  =     88372.7462 
E_dihed  =     42086.4945 E_impro  =      1777.1638 E_vdwl   =    -16780.6845 
E_coul   =   1667277.7087 E_long   =  -2177296.3608 Press    =      -242.1163 
Volume   =   2471316.4374 
---------------- Step     4850 ----- CPU =    329.8658 (sec) ----------------
TotEng   =   -201803.1986 KinEng   =    171671.1227 Temp     =       299.2248 
PotEng   =   -373474.3213 E_bond   =     20663.7337 E_angle  =     88555.0307 
E_dihed  =     42034.5432 E_impro  =      1775.4525 E_vdwl   =    -16777.2909 
E_coul   =   1667556.6886 E_long   =  -2177282.4791 Press    =        37.0359 
Volume   =   2471623.1854 
---------------- Step     4900 ----- CPU =    333.2590 (sec) ----------------
TotEng   =   -201350.5758 KinEng   =    172010.7269 Temp     =       299.8168 
PotEng   =   -373361.3027 E_bond   =     20642.5709 E_angle  =     88737.5382 
E_dihed  =     42094.6319 E_impro  =      1802.0857 E_vdwl   =    -16234.9540 
E_coul   =   1666862.1054 E_long   =  -2177265.2808 Press    =        19.1900 
Volume   =   2471697.8455 
---------------- Step     4950 ----- CPU =    336.6501 (sec) ----------------
TotEng   =   -201105.8199 KinEng   =    172247.9825 Temp     =       300.2303 
PotEng   =   -373353.8024 E_bond   =     20759.8589 E_angle  =     88622.0531 
E_dihed  =     42117.2752 E_impro  =      1817.6694 E_vdwl   =    -16651.0979 
E_coul   =   1667312.9928 E_long   =  -2177332.5540 Press    =       -28.0196 
Volume   =   2471749.1521 
---------------- Step     5000 ----- CPU =    340.0443 (sec) ----------------
TotEng   =   -201303.6071 KinEng   =    172266.9674 Temp     =       300.2634 
PotEng   =   -373570.5745 E_bond   =     20950.7040 E_angle  =     88488.3433 
E_dihed  =     41967.0854 E_impro  =      1763.0894 E_vdwl   =    -16157.6475 
E_coul   =   1666703.1811 E_long   =  -2177285.3302 Press    =      -117.9997 
Volume   =   2471388.8631 
---------------- Step     5050 ----- CPU =    343.4377 (sec) ----------------
TotEng   =   -201668.5311 KinEng   =    172398.3480 Temp     =       300.4924 
PotEng   =   -374066.8791 E_bond   =     20546.3799 E_angle  =     88476.2803 
E_dihed  =     41899.7953 E_impro  =      1853.4388 E_vdwl   =    -16588.1729 
E_coul   =   1667014.4075 E_long   =  -2177269.0080 Press    =        -7.8735 
Volume   =   2470844.9402 
---------------- Step     5100 ----- CPU =    346.8276 (sec) ----------------
TotEng   =   -202237.9392 KinEng   =    171746.2267 Temp     =       299.3557 
PotEng   =   -373984.1659 E_bond   =     20609.3264 E_angle  =     88485.1615 
E_dihed  =     42072.9552 E_impro  =      1791.6444 E_vdwl   =    -16156.7112 
E_coul   =   1666519.1086 E_long   =  -2177305.6508 Press    =        51.3547 
Volume   =   2470800.2279 
---------------- Step     5150 ----- CPU =    350.2735 (sec) ----------------
TotEng   =   -202470.2653 KinEng   =    171524.2073 Temp     =       298.9688 
PotEng   =   -373994.4726 E_bond   =     20675.8378 E_angle  =     88428.2904 
E_dihed  =     42205.2341 E_impro  =      1853.1194 E_vdwl   =    -16649.9995 
E_coul   =   1666802.8353 E_long   =  -2177309.7901 Press    =       -71.2702 
Volume   =   2470856.6355 
---------------- Step     5200 ----- CPU =    353.5980 (sec) ----------------
TotEng   =   -202065.2702 KinEng   =    172083.2552 Temp     =       299.9432 
PotEng   =   -374148.5253 E_bond   =     20571.1992 E_angle  =     88494.7659 
E_dihed  =     42042.1734 E_impro  =      1802.1017 E_vdwl   =    -16710.1027 
E_coul   =   1666865.0237 E_long   =  -2177213.6865 Press    =        14.3864 
Volume   =   2470680.1442 
---------------- Step     5250 ----- CPU =    356.9817 (sec) ----------------
TotEng   =   -201581.8735 KinEng   =    172575.1689 Temp     =       300.8006 
PotEng   =   -374157.0424 E_bond   =     20633.3093 E_angle  =     88528.1951 
E_dihed  =     42068.4639 E_impro  =      1829.3467 E_vdwl   =    -16511.6436 
E_coul   =   1666575.3270 E_long   =  -2177280.0409 Press    =      -164.3162 
Volume   =   2470308.2466 
---------------- Step     5300 ----- CPU =    360.3654 (sec) ----------------
TotEng   =   -201481.8807 KinEng   =    172434.0142 Temp     =       300.5546 
PotEng   =   -373915.8949 E_bond   =     20607.0295 E_angle  =     88603.4278 
E_dihed  =     41959.1133 E_impro  =      1787.2675 E_vdwl   =    -16472.4839 
E_coul   =   1666915.6720 E_long   =  -2177315.9212 Press    =       -21.7134 
Volume   =   2470435.1455 
---------------- Step     5350 ----- CPU =    363.7543 (sec) ----------------
TotEng   =   -201782.2591 KinEng   =    172288.5048 Temp     =       300.3009 
PotEng   =   -374070.7639 E_bond   =     20674.6780 E_angle  =     88817.3691 
E_dihed  =     42047.6903 E_impro  =      1764.4834 E_vdwl   =    -17123.0265 
E_coul   =   1667038.1290 E_long   =  -2177290.0871 Press    =      -170.1635 
Volume   =   2470666.7228 
---------------- Step     5400 ----- CPU =    367.1411 (sec) ----------------
TotEng   =   -202053.6535 KinEng   =    171822.9113 Temp     =       299.4894 
PotEng   =   -373876.5648 E_bond   =     20577.2916 E_angle  =     88664.4406 
E_dihed  =     42063.4871 E_impro  =      1751.8327 E_vdwl   =    -16913.3905 
E_coul   =   1667252.7245 E_long   =  -2177272.9508 Press    =      -157.8925 
Volume   =   2470367.1023 
---------------- Step     5450 ----- CPU =    370.5329 (sec) ----------------
TotEng   =   -201917.1667 KinEng   =    171960.1791 Temp     =       299.7287 
PotEng   =   -373877.3458 E_bond   =     20469.9614 E_angle  =     88661.9216 
E_dihed  =     41938.8577 E_impro  =      1758.9809 E_vdwl   =    -15937.1409 
E_coul   =   1666489.3857 E_long   =  -2177259.3123 Press    =        40.3350 
Volume   =   2469640.9631 
---------------- Step     5500 ----- CPU =    373.9192 (sec) ----------------
TotEng   =   -201395.8667 KinEng   =    171780.7157 Temp     =       299.4159 
PotEng   =   -373176.5823 E_bond   =     20736.2936 E_angle  =     88588.5356 
E_dihed  =     42128.6207 E_impro  =      1791.1498 E_vdwl   =    -16427.2092 
E_coul   =   1667257.3326 E_long   =  -2177251.3054 Press    =       160.6506 
Volume   =   2469649.8897 
---------------- Step     5550 ----- CPU =    377.3714 (sec) ----------------
TotEng   =   -200669.9394 KinEng   =    172571.1181 Temp     =       300.7935 
PotEng   =   -373241.0575 E_bond   =     20738.7725 E_angle  =     89082.0573 
E_dihed  =     41994.0591 E_impro  =      1828.7142 E_vdwl   =    -16689.7403 
E_coul   =   1667078.4668 E_long   =  -2177273.3871 Press    =       -31.8988 
Volume   =   2469705.8430 
---------------- Step     5600 ----- CPU =    380.7599 (sec) ----------------
TotEng   =   -200841.7406 KinEng   =    172621.9265 Temp     =       300.8821 
PotEng   =   -373463.6671 E_bond   =     20711.9680 E_angle  =     88993.4443 
E_dihed  =     42110.5178 E_impro  =      1825.6501 E_vdwl   =    -16885.1425 
E_coul   =   1667075.1202 E_long   =  -2177295.2251 Press    =       103.4943 
Volume   =   2469387.4898 
---------------- Step     5650 ----- CPU =    384.0884 (sec) ----------------
TotEng   =   -202038.0132 KinEng   =    171847.6580 Temp     =       299.5325 
PotEng   =   -373885.6712 E_bond   =     20816.3312 E_angle  =     88501.3692 
E_dihed  =     42190.3198 E_impro  =      1783.9313 E_vdwl   =    -15729.7714 
E_coul   =   1665858.7948 E_long   =  -2177306.6463 Press    =        79.0772 
Volume   =   2468936.8058 
---------------- Step     5700 ----- CPU =    387.4814 (sec) ----------------
TotEng   =   -203288.4185 KinEng   =    171111.6015 Temp     =       298.2496 
PotEng   =   -374400.0200 E_bond   =     20709.5130 E_angle  =     88314.2507 
E_dihed  =     41967.5471 E_impro  =      1782.5890 E_vdwl   =    -16174.0297 
E_coul   =   1666322.0202 E_long   =  -2177321.9103 Press    =        46.2859 
Volume   =   2469164.5583 
---------------- Step     5750 ----- CPU =    390.8705 (sec) ----------------
TotEng   =   -203435.6231 KinEng   =    171190.1822 Temp     =       298.3866 
PotEng   =   -374625.8053 E_bond   =     20661.5454 E_angle  =     88344.3579 
E_dihed  =     42006.1666 E_impro  =      1793.1947 E_vdwl   =    -16213.4079 
E_coul   =   1666038.9428 E_long   =  -2177256.6048 Press    =        68.7009 
Volume   =   2469744.5793 
---------------- Step     5800 ----- CPU =    394.2659 (sec) ----------------
TotEng   =   -202084.2215 KinEng   =    171596.9634 Temp     =       299.0956 
PotEng   =   -373681.1849 E_bond   =     20624.8539 E_angle  =     88562.4645 
E_dihed  =     42045.4932 E_impro  =      1767.4360 E_vdwl   =    -16263.2577 
E_coul   =   1666818.6318 E_long   =  -2177236.8065 Press    =        23.6715 
Volume   =   2469968.1292 
---------------- Step     5850 ----- CPU =    397.6620 (sec) ----------------
TotEng   =   -200502.6001 KinEng   =    173158.2452 Temp     =       301.8169 
PotEng   =   -373660.8453 E_bond   =     20651.3779 E_angle  =     88753.6072 
E_dihed  =     41947.9305 E_impro  =      1763.6318 E_vdwl   =    -16506.8720 
E_coul   =   1666954.6465 E_long   =  -2177225.1673 Press    =        57.1578 
Volume   =   2470209.6808 
---------------- Step     5900 ----- CPU =    401.0607 (sec) ----------------
TotEng   =   -200405.0397 KinEng   =    172656.4516 Temp     =       300.9423 
PotEng   =   -373061.4913 E_bond   =     20868.0120 E_angle  =     88836.5784 
E_dihed  =     42000.6171 E_impro  =      1832.2992 E_vdwl   =    -16280.1099 
E_coul   =   1666944.7386 E_long   =  -2177263.6265 Press    =        15.7840 
Volume   =   2470734.5323 
---------------- Step     5950 ----- CPU =    404.4517 (sec) ----------------
TotEng   =   -201712.6964 KinEng   =    172201.3754 Temp     =       300.1491 
PotEng   =   -373914.0718 E_bond   =     20754.2582 E_angle  =     88570.9406 
E_dihed  =     41987.8059 E_impro  =      1816.0266 E_vdwl   =    -16219.3609 
E_coul   =   1666422.8247 E_long   =  -2177246.5670 Press    =       -33.8185 
Volume   =   2471315.0239 
---------------- Step     6000 ----- CPU =    407.8425 (sec) ----------------
TotEng   =   -203002.1086 KinEng   =    171335.8573 Temp     =       298.6405 
PotEng   =   -374337.9659 E_bond   =     20532.4709 E_angle  =     88751.9990 
E_dihed  =     41972.2993 E_impro  =      1775.9738 E_vdwl   =    -16389.4481 
E_coul   =   1666298.5836 E_long   =  -2177279.8444 Press    =        35.9147 
Volume   =   2471936.8965 
---------------- Step     6050 ----- CPU =    411.2363 (sec) ----------------
TotEng   =   -203370.5469 KinEng   =    171610.7115 Temp     =       299.1195 
PotEng   =   -374981.2584 E_bond   =     20673.3932 E_angle  =     88390.1351 
E_dihed  =     41860.9037 E_impro  =      1795.6078 E_vdwl   =    -16643.1275 
E_coul   =   1666205.3824 E_long   =  -2177263.5532 Press    =      -110.6489 
Volume   =   2471971.4326 
---------------- Step     6100 ----- CPU =    414.6987 (sec) ----------------
TotEng   =   -202388.1328 KinEng   =    172168.2837 Temp     =       300.0914 
PotEng   =   -374556.4165 E_bond   =     20682.3916 E_angle  =     88329.1928 
E_dihed  =     41984.5837 E_impro  =      1761.3746 E_vdwl   =    -16050.2485 
E_coul   =   1666036.7459 E_long   =  -2177300.4567 Press    =        11.2544 
Volume   =   2471483.6074 
---------------- Step     6150 ----- CPU =    418.1008 (sec) ----------------
TotEng   =   -201165.8162 KinEng   =    172382.3682 Temp     =       300.4645 
PotEng   =   -373548.1844 E_bond   =     20628.2111 E_angle  =     88989.9121 
E_dihed  =     42178.5375 E_impro  =      1771.3860 E_vdwl   =    -16754.0738 
E_coul   =   1666938.1811 E_long   =  -2177300.3384 Press    =       -22.7065 
Volume   =   2471274.3525 
---------------- Step     6200 ----- CPU =    421.5048 (sec) ----------------
TotEng   =   -200698.2758 KinEng   =    173374.1226 Temp     =       302.1932 
PotEng   =   -374072.3984 E_bond   =     20715.0350 E_angle  =     88730.9356 
E_dihed  =     42144.4416 E_impro  =      1847.1821 E_vdwl   =    -16482.8047 
E_coul   =   1666255.0083 E_long   =  -2177282.1963 Press    =       -29.3312 
Volume   =   2470836.0410 
---------------- Step     6250 ----- CPU =    424.9022 (sec) ----------------
TotEng   =   -201847.3780 KinEng   =    172353.0647 Temp     =       300.4135 
PotEng   =   -374200.4427 E_bond   =     20807.2728 E_angle  =     88194.3845 
E_dihed  =     42181.8254 E_impro  =      1798.9194 E_vdwl   =    -16158.2902 
E_coul   =   1666260.0914 E_long   =  -2177284.6460 Press    =        75.2063 
Volume   =   2470410.4416 
---------------- Step     6300 ----- CPU =    428.2341 (sec) ----------------
TotEng   =   -203058.9185 KinEng   =    171484.3987 Temp     =       298.8994 
PotEng   =   -374543.3171 E_bond   =     20708.9988 E_angle  =     88439.8915 
E_dihed  =     41992.5176 E_impro  =      1813.0470 E_vdwl   =    -16784.0040 
E_coul   =   1666585.4842 E_long   =  -2177299.2523 Press    =      -160.6988 
Volume   =   2470206.3787 
---------------- Step     6350 ----- CPU =    431.6384 (sec) ----------------
TotEng   =   -203130.9867 KinEng   =    171763.7012 Temp     =       299.3862 
PotEng   =   -374894.6879 E_bond   =     20551.3824 E_angle  =     88656.2389 
E_dihed  =     42044.0019 E_impro  =      1796.6386 E_vdwl   =    -16456.1235 
E_coul   =   1665824.9601 E_long   =  -2177311.7864 Press    =       -50.5527 
Volume   =   2470078.3474 
---------------- Step     6400 ----- CPU =    435.0941 (sec) ----------------
TotEng   =   -202410.0983 KinEng   =    171897.1779 Temp     =       299.6189 
PotEng   =   -374307.2762 E_bond   =     20636.1105 E_angle  =     88517.2919 
E_dihed  =     42101.1325 E_impro  =      1806.2744 E_vdwl   =    -16403.7694 
E_coul   =   1666333.9004 E_long   =  -2177298.2164 Press    =        72.5520 
Volume   =   2469942.9152 
---------------- Step     6450 ----- CPU =    438.4883 (sec) ----------------
TotEng   =   -201399.3170 KinEng   =    172682.6155 Temp     =       300.9879 
PotEng   =   -374081.9325 E_bond   =     20738.4715 E_angle  =     88871.3361 
E_dihed  =     42205.9321 E_impro  =      1808.9148 E_vdwl   =    -16488.1801 
E_coul   =   1666096.7836 E_long   =  -2177315.1904 Press    =       -46.7410 
Volume   =   2469989.6947 
---------------- Step     6500 ----- CPU =    441.8857 (sec) ----------------
TotEng   =   -201143.6941 KinEng   =    172747.9515 Temp     =       301.1018 
PotEng   =   -373891.6457 E_bond   =     20787.7395 E_angle  =     88586.0604 
E_dihed  =     42193.2459 E_impro  =      1754.0326 E_vdwl   =    -16425.8621 
E_coul   =   1666464.5763 E_long   =  -2177251.4382 Press    =       135.3805 
Volume   =   2470034.2109 
---------------- Step     6550 ----- CPU =    445.2831 (sec) ----------------
TotEng   =   -201701.3372 KinEng   =    172403.0287 Temp     =       300.5006 
PotEng   =   -374104.3660 E_bond   =     20722.9069 E_angle  =     88682.0467 
E_dihed  =     42175.1723 E_impro  =      1809.2478 E_vdwl   =    -16587.0575 
E_coul   =   1666380.9133 E_long   =  -2177287.5955 Press    =       -70.1218 
Volume   =   2470107.1897 
---------------- Step     6600 ----- CPU =    448.6802 (sec) ----------------
TotEng   =   -202696.2904 KinEng   =    172230.2068 Temp     =       300.1993 
PotEng   =   -374926.4972 E_bond   =     20766.5288 E_angle  =     88218.8399 
E_dihed  =     42095.6159 E_impro  =      1792.1834 E_vdwl   =    -16191.1357 
E_coul   =   1665676.2124 E_long   =  -2177284.7418 Press    =       -46.4514 
Volume   =   2470414.2464 
---------------- Step     6650 ----- CPU =    452.0732 (sec) ----------------
TotEng   =   -203273.1006 KinEng   =    171550.8161 Temp     =       299.0151 
PotEng   =   -374823.9167 E_bond   =     20776.6986 E_angle  =     88430.0376 
E_dihed  =     42066.3378 E_impro  =      1812.5375 E_vdwl   =    -16746.8841 
E_coul   =   1666138.9364 E_long   =  -2177301.5807 Press    =      -114.6071 
Volume   =   2470511.9433 
---------------- Step     6700 ----- CPU =    455.4676 (sec) ----------------
TotEng   =   -203094.0317 KinEng   =    171415.4951 Temp     =       298.7793 
PotEng   =   -374509.5268 E_bond   =     20648.7450 E_angle  =     88524.4398 
E_dihed  =     42147.5628 E_impro  =      1790.7887 E_vdwl   =    -15657.5053 
E_coul   =   1665336.3321 E_long   =  -2177299.8899 Press    =       128.8453 
Volume   =   2470280.3798 
---------------- Step     6750 ----- CPU =    458.8574 (sec) ----------------
TotEng   =   -202279.9116 KinEng   =    172511.3139 Temp     =       300.6893 
PotEng   =   -374791.2255 E_bond   =     20848.9653 E_angle  =     88480.4179 
E_dihed  =     41935.6300 E_impro  =      1843.5543 E_vdwl   =    -16119.7499 
E_coul   =   1665473.9297 E_long   =  -2177253.9729 Press    =       -19.4307 
Volume   =   2470389.9010 
---------------- Step     6800 ----- CPU =    462.2537 (sec) ----------------
TotEng   =   -201390.0059 KinEng   =    172566.0898 Temp     =       300.7848 
PotEng   =   -373956.0957 E_bond   =     20672.8308 E_angle  =     89082.0935 
E_dihed  =     41959.9708 E_impro  =      1834.3880 E_vdwl   =    -16517.0524 
E_coul   =   1666244.3332 E_long   =  -2177232.6596 Press    =       -80.3126 
Volume   =   2470634.3711 
---------------- Step     6850 ----- CPU =    465.7051 (sec) ----------------
TotEng   =   -201174.7192 KinEng   =    172345.7884 Temp     =       300.4008 
PotEng   =   -373520.5076 E_bond   =     20587.4143 E_angle  =     88904.1544 
E_dihed  =     42057.8167 E_impro  =      1793.6277 E_vdwl   =    -16775.1280 
E_coul   =   1667221.6335 E_long   =  -2177310.0262 Press    =      -126.3922 
Volume   =   2470865.7109 
---------------- Step     6900 ----- CPU =    469.0995 (sec) ----------------
TotEng   =   -201636.6908 KinEng   =    172212.1504 Temp     =       300.1679 
PotEng   =   -373848.8413 E_bond   =     20646.0787 E_angle  =     88973.1048 
E_dihed  =     42182.4362 E_impro  =      1825.7115 E_vdwl   =    -17073.4395 
E_coul   =   1666874.7884 E_long   =  -2177277.5212 Press    =       -33.1567 
Volume   =   2470891.7380 
---------------- Step     6950 ----- CPU =    472.4913 (sec) ----------------
TotEng   =   -202426.6272 KinEng   =    172425.2952 Temp     =       300.5394 
PotEng   =   -374851.9224 E_bond   =     20705.6335 E_angle  =     88220.9060 
E_dihed  =     41939.3316 E_impro  =      1822.1857 E_vdwl   =    -16731.9642 
E_coul   =   1666478.7252 E_long   =  -2177286.7402 Press    =      -215.2246 
Volume   =   2470890.3622 
---------------- Step     7000 ----- CPU =    475.8892 (sec) ----------------
TotEng   =   -202943.1712 KinEng   =    171713.1053 Temp     =       299.2980 
PotEng   =   -374656.2765 E_bond   =     20647.2634 E_angle  =     88581.4696 
E_dihed  =     41997.6792 E_impro  =      1849.9356 E_vdwl   =    -15870.5012 
E_coul   =   1665394.0179 E_long   =  -2177256.1408 Press    =        27.0730 
Volume   =   2470370.2895 
---------------- Step     7050 ----- CPU =    479.2839 (sec) ----------------
TotEng   =   -202748.7709 KinEng   =    171593.7851 Temp     =       299.0900 
PotEng   =   -374342.5559 E_bond   =     20679.3347 E_angle  =     88760.2252 
E_dihed  =     42002.9813 E_impro  =      1815.0655 E_vdwl   =    -16260.9252 
E_coul   =   1665960.8666 E_long   =  -2177300.1040 Press    =       -58.1673 
Volume   =   2469757.7180 
---------------- Step     7100 ----- CPU =    482.6879 (sec) ----------------
TotEng   =   -202035.3040 KinEng   =    172249.2866 Temp     =       300.2326 
PotEng   =   -374284.5907 E_bond   =     20637.8720 E_angle  =     88659.6766 
E_dihed  =     42085.5640 E_impro  =      1769.9576 E_vdwl   =    -16572.1923 
E_coul   =   1666421.9473 E_long   =  -2177287.4158 Press    =        22.2950 
Volume   =   2469429.1174 
---------------- Step     7150 ----- CPU =    486.1510 (sec) ----------------
TotEng   =   -201518.9173 KinEng   =    172338.5797 Temp     =       300.3882 
PotEng   =   -373857.4970 E_bond   =     20781.6887 E_angle  =     88898.8535 
E_dihed  =     42104.1445 E_impro  =      1816.4916 E_vdwl   =    -15931.7953 
E_coul   =   1665786.1535 E_long   =  -2177313.0335 Press    =        22.5262 
Volume   =   2469309.7813 
---------------- Step     7200 ----- CPU =    489.5545 (sec) ----------------
TotEng   =   -201590.9801 KinEng   =    172362.5991 Temp     =       300.4301 
PotEng   =   -373953.5791 E_bond   =     20583.7522 E_angle  =     88923.9453 
E_dihed  =     42078.0978 E_impro  =      1834.0392 E_vdwl   =    -16363.3691 
E_coul   =   1666249.7782 E_long   =  -2177259.8227 Press    =        73.4187 
Volume   =   2469578.2345 
---------------- Step     7250 ----- CPU =    492.9612 (sec) ----------------
TotEng   =   -201989.6603 KinEng   =    172145.5774 Temp     =       300.0518 
PotEng   =   -374135.2376 E_bond   =     20629.1956 E_angle  =     88577.7804 
E_dihed  =     42161.4480 E_impro  =      1793.7539 E_vdwl   =    -16685.5751 
E_coul   =   1666652.6864 E_long   =  -2177264.5267 Press    =       -18.9460 
Volume   =   2470005.7383 
---------------- Step     7300 ----- CPU =    496.3642 (sec) ----------------
TotEng   =   -202269.9670 KinEng   =    171933.2577 Temp     =       299.6817 
PotEng   =   -374203.2247 E_bond   =     20793.6791 E_angle  =     88892.2043 
E_dihed  =     42141.8124 E_impro  =      1764.4455 E_vdwl   =    -16718.1378 
E_coul   =   1666215.5297 E_long   =  -2177292.7579 Press    =       -77.7038 
Volume   =   2470482.8661 
---------------- Step     7350 ----- CPU =    499.7706 (sec) ----------------
TotEng   =   -202463.5710 KinEng   =    172311.4126 Temp     =       300.3409 
PotEng   =   -374774.9836 E_bond   =     20566.2762 E_angle  =     88680.6847 
E_dihed  =     42041.2437 E_impro  =      1833.5755 E_vdwl   =    -16588.7633 
E_coul   =   1665974.5864 E_long   =  -2177282.5868 Press    =       -71.8858 
Volume   =   2470684.8628 
---------------- Step     7400 ----- CPU =    503.1717 (sec) ----------------
TotEng   =   -202453.9174 KinEng   =    171678.5865 Temp     =       299.2378 
PotEng   =   -374132.5039 E_bond   =     20628.4080 E_angle  =     88816.5856 
E_dihed  =     42195.8740 E_impro  =      1811.6900 E_vdwl   =    -16154.2892 
E_coul   =   1665876.0740 E_long   =  -2177306.8462 Press    =       -57.2789 
Volume   =   2470154.7033 
---------------- Step     7450 ----- CPU =    506.5745 (sec) ----------------
TotEng   =   -202177.1682 KinEng   =    172093.8254 Temp     =       299.9616 
PotEng   =   -374270.9935 E_bond   =     20677.6327 E_angle  =     89010.7803 
E_dihed  =     42271.9604 E_impro  =      1811.7002 E_vdwl   =    -16577.8445 
E_coul   =   1665794.1496 E_long   =  -2177259.3722 Press    =      -102.2915 
Volume   =   2469462.8019 
---------------- Step     7500 ----- CPU =    509.9734 (sec) ----------------
TotEng   =   -201923.5058 KinEng   =    171953.8165 Temp     =       299.7176 
PotEng   =   -373877.3223 E_bond   =     20800.9676 E_angle  =     88899.0490 
E_dihed  =     42080.4002 E_impro  =      1790.1076 E_vdwl   =    -16328.0230 
E_coul   =   1666130.7605 E_long   =  -2177250.5842 Press    =       -43.7331 
Volume   =   2468792.8491 
---------------- Step     7550 ----- CPU =    513.3736 (sec) ----------------
TotEng   =   -201875.6797 KinEng   =    172249.2731 Temp     =       300.2326 
PotEng   =   -374124.9528 E_bond   =     20694.2385 E_angle  =     89204.3284 
E_dihed  =     42132.4800 E_impro  =      1773.6289 E_vdwl   =    -16725.7193 
E_coul   =   1666076.8318 E_long   =  -2177280.7411 Press    =       -43.5590 
Volume   =   2468026.7005 
---------------- Step     7600 ----- CPU =    516.7721 (sec) ----------------
TotEng   =   -202090.4951 KinEng   =    172250.3104 Temp     =       300.2344 
PotEng   =   -374340.8055 E_bond   =     20754.4503 E_angle  =     88561.2660 
E_dihed  =     42203.4561 E_impro  =      1791.0829 E_vdwl   =    -15909.3861 
E_coul   =   1665552.2469 E_long   =  -2177293.9217 Press    =        59.7244 
Volume   =   2466977.6075 
---------------- Step     7650 ----- CPU =    520.1808 (sec) ----------------
TotEng   =   -202599.7731 KinEng   =    172158.5958 Temp     =       300.0745 
PotEng   =   -374758.3689 E_bond   =     20660.2046 E_angle  =     88474.6471 
E_dihed  =     42339.8909 E_impro  =      1779.4108 E_vdwl   =    -16182.4960 
E_coul   =   1665444.5449 E_long   =  -2177274.5712 Press    =        45.6881 
Volume   =   2466370.3785 
---------------- Step     7700 ----- CPU =    523.6487 (sec) ----------------
TotEng   =   -202837.9141 KinEng   =    171835.9337 Temp     =       299.5121 
PotEng   =   -374673.8478 E_bond   =     20694.5756 E_angle  =     88912.4440 
E_dihed  =     42077.5618 E_impro  =      1810.6638 E_vdwl   =    -16777.2106 
E_coul   =   1665861.3211 E_long   =  -2177253.2035 Press    =       -33.4642 
Volume   =   2465624.7822 
---------------- Step     7750 ----- CPU =    527.0529 (sec) ----------------
TotEng   =   -202527.6744 KinEng   =    171813.6604 Temp     =       299.4733 
PotEng   =   -374341.3348 E_bond   =     20794.2532 E_angle  =     88770.9750 
E_dihed  =     42102.8575 E_impro  =      1816.4242 E_vdwl   =    -16037.0415 
E_coul   =   1665482.4482 E_long   =  -2177271.2513 Press    =       125.1408 
Volume   =   2465087.5692 
---------------- Step     7800 ----- CPU =    530.3938 (sec) ----------------
TotEng   =   -202160.4969 KinEng   =    172498.0922 Temp     =       300.6663 
PotEng   =   -374658.5890 E_bond   =     20608.2930 E_angle  =     88848.4708 
E_dihed  =     42005.3725 E_impro  =      1752.2463 E_vdwl   =    -16285.5903 
E_coul   =   1665691.3167 E_long   =  -2177278.6980 Press    =        39.1104 
Volume   =   2465279.0451 
---------------- Step     7850 ----- CPU =    533.7953 (sec) ----------------
TotEng   =   -202044.0912 KinEng   =    172055.9361 Temp     =       299.8956 
PotEng   =   -374100.0274 E_bond   =     20864.6355 E_angle  =     89052.7372 
E_dihed  =     42156.9920 E_impro  =      1790.1559 E_vdwl   =    -16265.3614 
E_coul   =   1665600.8764 E_long   =  -2177300.0630 Press    =      -173.2015 
Volume   =   2465973.9364 
---------------- Step     7900 ----- CPU =    537.2602 (sec) ----------------
TotEng   =   -202160.5462 KinEng   =    172069.0478 Temp     =       299.9184 
PotEng   =   -374229.5940 E_bond   =     20520.1115 E_angle  =     89073.1796 
E_dihed  =     41957.1536 E_impro  =      1803.8415 E_vdwl   =    -16997.6804 
E_coul   =   1666699.8784 E_long   =  -2177286.0781 Press    =       -82.2102 
Volume   =   2466536.1030 
---------------- Step     7950 ----- CPU =    540.6046 (sec) ----------------
TotEng   =   -202400.7756 KinEng   =    171985.7649 Temp     =       299.7733 
PotEng   =   -374386.5405 E_bond   =     20828.3614 E_angle  =     88683.0965 
E_dihed  =     42150.4841 E_impro  =      1779.5672 E_vdwl   =    -16859.4123 
E_coul   =   1666334.7685 E_long   =  -2177303.4059 Press    =       -93.2808 
Volume   =   2466725.6930 
---------------- Step     8000 ----- CPU =    544.0724 (sec) ----------------
TotEng   =   -202478.7415 KinEng   =    171737.3720 Temp     =       299.3403 
PotEng   =   -374216.1135 E_bond   =     20757.3595 E_angle  =     88886.8572 
E_dihed  =     42258.0176 E_impro  =      1793.2165 E_vdwl   =    -16771.2536 
E_coul   =   1666162.7198 E_long   =  -2177303.0305 Press    =      -132.3609 
Volume   =   2466431.9654 
---------------- Step     8050 ----- CPU =    547.4795 (sec) ----------------
TotEng   =   -202204.5736 KinEng   =    172083.0288 Temp     =       299.9428 
PotEng   =   -374287.6024 E_bond   =     20635.4142 E_angle  =     88689.7805 
E_dihed  =     42095.3147 E_impro  =      1812.4234 E_vdwl   =    -16360.0726 
E_coul   =   1666100.8951 E_long   =  -2177261.3578 Press    =        57.7487 
Volume   =   2465985.7892 
---------------- Step     8100 ----- CPU =    550.8302 (sec) ----------------
TotEng   =   -202121.5350 KinEng   =    172691.8863 Temp     =       301.0040 
PotEng   =   -374813.4212 E_bond   =     20703.1498 E_angle  =     88614.3456 
E_dihed  =     42016.2971 E_impro  =      1777.3028 E_vdwl   =    -16308.7110 
E_coul   =   1665653.6811 E_long   =  -2177269.4867 Press    =       -22.2444 
Volume   =   2465595.1848 
---------------- Step     8150 ----- CPU =    554.2348 (sec) ----------------
TotEng   =   -202653.8964 KinEng   =    171711.4870 Temp     =       299.2952 
PotEng   =   -374365.3835 E_bond   =     20650.8627 E_angle  =     89374.9134 
E_dihed  =     42025.2113 E_impro  =      1797.8055 E_vdwl   =    -16958.7410 
E_coul   =   1666016.4525 E_long   =  -2177271.8879 Press    =         8.9989 
Volume   =   2465402.6057 
---------------- Step     8200 ----- CPU =    557.7048 (sec) ----------------
TotEng   =   -202866.0316 KinEng   =    171770.1185 Temp     =       299.3974 
PotEng   =   -374636.1500 E_bond   =     20702.3705 E_angle  =     89141.7937 
E_dihed  =     42126.9255 E_impro  =      1835.6960 E_vdwl   =    -16628.4118 
E_coul   =   1665497.2941 E_long   =  -2177311.8182 Press    =       -16.0587 
Volume   =   2465038.5051 
---------------- Step     8250 ----- CPU =    561.0537 (sec) ----------------
TotEng   =   -202678.0002 KinEng   =    172343.2947 Temp     =       300.3964 
PotEng   =   -375021.2949 E_bond   =     20785.0902 E_angle  =     88496.9882 
E_dihed  =     42182.0437 E_impro  =      1823.6735 E_vdwl   =    -16569.5953 
E_coul   =   1665537.0236 E_long   =  -2177276.5187 Press    =        76.1897 
Volume   =   2464467.1323 
---------------- Step     8300 ----- CPU =    564.4625 (sec) ----------------
TotEng   =   -202435.0683 KinEng   =    172441.0525 Temp     =       300.5668 
PotEng   =   -374876.1208 E_bond   =     20775.5114 E_angle  =     88836.9323 
E_dihed  =     42074.9211 E_impro  =      1821.2306 E_vdwl   =    -16179.0817 
E_coul   =   1665097.2063 E_long   =  -2177302.8408 Press    =         6.9043 
Volume   =   2464318.4684 
---------------- Step     8350 ----- CPU =    567.8674 (sec) ----------------
TotEng   =   -202627.9778 KinEng   =    171852.6240 Temp     =       299.5412 
PotEng   =   -374480.6019 E_bond   =     20579.9636 E_angle  =     89383.9425 
E_dihed  =     42085.2493 E_impro  =      1849.2143 E_vdwl   =    -16298.4961 
E_coul   =   1665243.5193 E_long   =  -2177323.9948 Press    =       173.0739 
Volume   =   2464684.8780 
---------------- Step     8400 ----- CPU =    571.3342 (sec) ----------------
TotEng   =   -203198.1791 KinEng   =    172049.5149 Temp     =       299.8844 
PotEng   =   -375247.6940 E_bond   =     20633.1861 E_angle  =     88424.8154 
E_dihed  =     41962.7562 E_impro  =      1802.2656 E_vdwl   =    -16316.8654 
E_coul   =   1665573.5054 E_long   =  -2177327.3572 Press    =        15.5715 
Volume   =   2465810.6251 
---------------- Step     8450 ----- CPU =    574.7392 (sec) ----------------
TotEng   =   -203414.7977 KinEng   =    172011.0421 Temp     =       299.8173 
PotEng   =   -375425.8398 E_bond   =     20528.2148 E_angle  =     88526.2742 
E_dihed  =     42179.8031 E_impro  =      1825.6989 E_vdwl   =    -15817.6107 
E_coul   =   1664587.2631 E_long   =  -2177255.4833 Press    =       102.1288 
Volume   =   2467035.7319 
---------------- Step     8500 ----- CPU =    578.1422 (sec) ----------------
TotEng   =   -203047.9127 KinEng   =    172083.6157 Temp     =       299.9438 
PotEng   =   -375131.5284 E_bond   =     20704.2934 E_angle  =     88500.0032 
E_dihed  =     42217.2831 E_impro  =      1772.4952 E_vdwl   =    -16024.4008 
E_coul   =   1664976.9937 E_long   =  -2177278.1962 Press    =        13.5550 
Volume   =   2468098.0831 
---------------- Step     8550 ----- CPU =    581.5470 (sec) ----------------
TotEng   =   -202225.9815 KinEng   =    172070.4398 Temp     =       299.9209 
PotEng   =   -374296.4213 E_bond   =     20856.8773 E_angle  =     89023.4664 
E_dihed  =     42285.0387 E_impro  =      1788.8576 E_vdwl   =    -16231.5204 
E_coul   =   1665219.2200 E_long   =  -2177238.3610 Press    =        52.2332 
Volume   =   2468686.4194 
---------------- Step     8600 ----- CPU =    584.9460 (sec) ----------------
TotEng   =   -201704.4933 KinEng   =    172718.6275 Temp     =       301.0507 
PotEng   =   -374423.1208 E_bond   =     20766.7349 E_angle  =     89027.6413 
E_dihed  =     42039.1059 E_impro  =      1817.0622 E_vdwl   =    -15986.5086 
E_coul   =   1665174.3899 E_long   =  -2177261.5463 Press    =       -80.4735 
Volume   =   2469378.8341 
---------------- Step     8650 ----- CPU =    588.2787 (sec) ----------------
TotEng   =   -201976.7509 KinEng   =    172442.3306 Temp     =       300.5691 
PotEng   =   -374419.0815 E_bond   =     20648.8821 E_angle  =     89116.2013 
E_dihed  =     42144.4764 E_impro  =      1814.3866 E_vdwl   =    -16518.5528 
E_coul   =   1665664.5942 E_long   =  -2177289.0693 Press    =       -81.7461 
Volume   =   2469994.9489 
---------------- Step     8700 ----- CPU =    591.6721 (sec) ----------------
TotEng   =   -202721.4351 KinEng   =    171520.6545 Temp     =       298.9626 
PotEng   =   -374242.0896 E_bond   =     20811.9202 E_angle  =     89040.7220 
E_dihed  =     42118.6310 E_impro  =      1792.0793 E_vdwl   =    -16620.4552 
E_coul   =   1665871.9618 E_long   =  -2177256.9486 Press    =       -55.2753 
Volume   =   2470330.2413 
---------------- Step     8750 ----- CPU =    595.0652 (sec) ----------------
TotEng   =   -203017.0705 KinEng   =    171571.7822 Temp     =       299.0517 
PotEng   =   -374588.8526 E_bond   =     20815.3316 E_angle  =     88806.5382 
E_dihed  =     42134.9872 E_impro  =      1799.4159 E_vdwl   =    -16231.4844 
E_coul   =   1665355.4465 E_long   =  -2177269.0877 Press    =      -117.7596 
Volume   =   2470746.0137 
---------------- Step     8800 ----- CPU =    598.4558 (sec) ----------------
TotEng   =   -202710.1567 KinEng   =    171825.8417 Temp     =       299.4945 
PotEng   =   -374535.9984 E_bond   =     20855.4644 E_angle  =     88792.0894 
E_dihed  =     42229.5300 E_impro  =      1792.9152 E_vdwl   =    -16517.3323 
E_coul   =   1665582.3224 E_long   =  -2177270.9875 Press    =         8.4749 
Volume   =   2471086.0533 
---------------- Step     8850 ----- CPU =    601.8525 (sec) ----------------
TotEng   =   -202090.3505 KinEng   =    171803.9470 Temp     =       299.4564 
PotEng   =   -373894.2975 E_bond   =     20909.2120 E_angle  =     89093.5399 
E_dihed  =     42192.7171 E_impro  =      1759.7251 E_vdwl   =    -16269.0020 
E_coul   =   1665710.6454 E_long   =  -2177291.1350 Press    =      -145.2658 
Volume   =   2470893.7991 
---------------- Step     8900 ----- CPU =    605.2450 (sec) ----------------
TotEng   =   -201601.6192 KinEng   =    172499.9121 Temp     =       300.6694 
PotEng   =   -374101.5313 E_bond   =     20754.4745 E_angle  =     89006.0487 
E_dihed  =     42142.4539 E_impro  =      1783.5635 E_vdwl   =    -16540.6374 
E_coul   =   1666043.9684 E_long   =  -2177291.4029 Press    =        -5.4704 
Volume   =   2470427.2822 
---------------- Step     8950 ----- CPU =    608.6424 (sec) ----------------
TotEng   =   -201639.6393 KinEng   =    172571.3969 Temp     =       300.7940 
PotEng   =   -374211.0361 E_bond   =     20879.5135 E_angle  =     89084.8245 
E_dihed  =     42077.6645 E_impro  =      1801.2391 E_vdwl   =    -16299.9990 
E_coul   =   1665510.6411 E_long   =  -2177264.9198 Press    =       -90.8073 
Volume   =   2470155.5313 
---------------- Step     9000 ----- CPU =    612.0452 (sec) ----------------
TotEng   =   -202335.8252 KinEng   =    172480.8084 Temp     =       300.6361 
PotEng   =   -374816.6336 E_bond   =     20812.6016 E_angle  =     88827.4805 
E_dihed  =     42125.6234 E_impro  =      1801.1869 E_vdwl   =    -16700.3923 
E_coul   =   1665579.4616 E_long   =  -2177262.5953 Press    =      -237.3260 
Volume   =   2469858.3733 
---------------- Step     9050 ----- CPU =    615.5067 (sec) ----------------
TotEng   =   -203195.2127 KinEng   =    171578.8356 Temp     =       299.0640 
PotEng   =   -374774.0483 E_bond   =     20655.3020 E_angle  =     88761.9011 
E_dihed  =     42254.8933 E_impro  =      1808.2688 E_vdwl   =    -16400.8321 
E_coul   =   1665431.0812 E_long   =  -2177284.6627 Press    =       -61.5135 
Volume   =   2469259.0101 
---------------- Step     9100 ----- CPU =    618.9124 (sec) ----------------
TotEng   =   -203382.6297 KinEng   =    171836.1676 Temp     =       299.5125 
PotEng   =   -375218.7973 E_bond   =     20794.3665 E_angle  =     88549.7556 
E_dihed  =     41988.5164 E_impro  =      1830.7485 E_vdwl   =    -16397.2523 
E_coul   =   1665313.5940 E_long   =  -2177298.5260 Press    =         9.7455 
Volume   =   2468740.4042 
---------------- Step     9150 ----- CPU =    622.3209 (sec) ----------------
TotEng   =   -202811.3611 KinEng   =    172049.5617 Temp     =       299.8845 
PotEng   =   -374860.9227 E_bond   =     20543.1358 E_angle  =     88866.8650 
E_dihed  =     42118.2193 E_impro  =      1861.4862 E_vdwl   =    -16800.5229 
E_coul   =   1665820.8270 E_long   =  -2177270.9333 Press    =        68.9606 
Volume   =   2468644.7253 
---------------- Step     9200 ----- CPU =    625.7299 (sec) ----------------
TotEng   =   -201800.5950 KinEng   =    172604.8514 Temp     =       300.8523 
PotEng   =   -374405.4465 E_bond   =     20861.9620 E_angle  =     88733.4442 
E_dihed  =     42238.1934 E_impro  =      1788.1941 E_vdwl   =    -16510.1635 
E_coul   =   1665785.8141 E_long   =  -2177302.8907 Press    =       -51.6732 
Volume   =   2469008.9914 
---------------- Step     9250 ----- CPU =    629.1400 (sec) ----------------
TotEng   =   -201529.8460 KinEng   =    172597.7971 Temp     =       300.8400 
PotEng   =   -374127.6430 E_bond   =     20693.6897 E_angle  =     88975.9495 
E_dihed  =     42185.6957 E_impro  =      1835.0934 E_vdwl   =    -16417.4109 
E_coul   =   1665920.5983 E_long   =  -2177321.2588 Press    =       -59.5252 
Volume   =   2469499.9188 
---------------- Step     9300 ----- CPU =    632.5492 (sec) ----------------
TotEng   =   -202352.6950 KinEng   =    172401.3655 Temp     =       300.4977 
PotEng   =   -374754.0605 E_bond   =     20610.6496 E_angle  =     88738.1084 
E_dihed  =     42137.0844 E_impro  =      1834.5902 E_vdwl   =    -16364.7396 
E_coul   =   1665584.8909 E_long   =  -2177294.6443 Press    =        45.8285 
Volume   =   2469818.9306 
---------------- Step     9350 ----- CPU =    635.9575 (sec) ----------------
TotEng   =   -203313.3738 KinEng   =    171805.2947 Temp     =       299.4587 
PotEng   =   -375118.6685 E_bond   =     20804.5217 E_angle  =     88632.3866 
E_dihed  =     41954.6233 E_impro  =      1810.4337 E_vdwl   =    -16650.7071 
E_coul   =   1665646.2799 E_long   =  -2177316.2066 Press    =       -25.7717 
Volume   =   2469898.1125 
---------------- Step     9400 ----- CPU =    639.3681 (sec) ----------------
TotEng   =   -203404.5590 KinEng   =    171799.5656 Temp     =       299.4487 
PotEng   =   -375204.1247 E_bond   =     20786.6847 E_angle  =     88522.3758 
E_dihed  =     42025.5981 E_impro  =      1793.3372 E_vdwl   =    -16717.4192 
E_coul   =   1665670.1414 E_long   =  -2177284.8426 Press    =       -71.6057 
Volume   =   2469478.2751 
---------------- Step     9450 ----- CPU =    642.7761 (sec) ----------------
TotEng   =   -202625.7717 KinEng   =    171858.4723 Temp     =       299.5514 
PotEng   =   -374484.2440 E_bond   =     20592.1491 E_angle  =     89212.3913 
E_dihed  =     42153.2847 E_impro  =      1854.8020 E_vdwl   =    -16554.7060 
E_coul   =   1665612.9167 E_long   =  -2177355.0819 Press    =       -29.3553 
Volume   =   2468596.8436 
---------------- Step     9500 ----- CPU =    646.1794 (sec) ----------------
TotEng   =   -201763.3423 KinEng   =    172506.5314 Temp     =       300.6810 
PotEng   =   -374269.8737 E_bond   =     20890.5342 E_angle  =     89119.5616 
E_dihed  =     42091.6840 E_impro  =      1791.3641 E_vdwl   =    -16018.2077 
E_coul   =   1665166.6203 E_long   =  -2177311.4302 Press    =       -71.2558 
Volume   =   2467719.2489 
---------------- Step     9550 ----- CPU =    649.5833 (sec) ----------------
TotEng   =   -201677.0642 KinEng   =    172410.6980 Temp     =       300.5139 
PotEng   =   -374087.7622 E_bond   =     20744.5814 E_angle  =     89167.6797 
E_dihed  =     42132.9881 E_impro  =      1818.0831 E_vdwl   =    -16020.1864 
E_coul   =   1665340.0370 E_long   =  -2177270.9451 Press    =       175.9271 
Volume   =   2466764.5239 
---------------- Step     9600 ----- CPU =    652.9868 (sec) ----------------
TotEng   =   -202369.0595 KinEng   =    172059.5866 Temp     =       299.9019 
PotEng   =   -374428.6461 E_bond   =     20854.2723 E_angle  =     88855.2598 
E_dihed  =     42223.1573 E_impro  =      1739.5867 E_vdwl   =    -15994.2738 
E_coul   =   1665159.7579 E_long   =  -2177266.4063 Press    =        98.9785 
Volume   =   2466101.1799 
---------------- Step     9650 ----- CPU =    656.3880 (sec) ----------------
TotEng   =   -203101.3504 KinEng   =    172009.1415 Temp     =       299.8140 
PotEng   =   -375110.4919 E_bond   =     20870.2042 E_angle  =     88780.5492 
E_dihed  =     42064.5777 E_impro  =      1798.3497 E_vdwl   =    -16350.6207 
E_coul   =   1665041.7305 E_long   =  -2177315.2825 Press    =       -89.2239 
Volume   =   2466281.7528 
---------------- Step     9700 ----- CPU =    659.7919 (sec) ----------------
TotEng   =   -203634.5477 KinEng   =    171766.9726 Temp     =       299.3919 
PotEng   =   -375401.5203 E_bond   =     20777.7782 E_angle  =     88971.1992 
E_dihed  =     42098.4944 E_impro  =      1767.8733 E_vdwl   =    -16284.5719 
E_coul   =   1664607.0284 E_long   =  -2177339.3219 Press    =        10.6170 
Volume   =   2466676.5697 
---------------- Step     9750 ----- CPU =    663.1912 (sec) ----------------
TotEng   =   -203392.6818 KinEng   =    172028.7523 Temp     =       299.8482 
PotEng   =   -375421.4341 E_bond   =     20702.8454 E_angle  =     89047.4084 
E_dihed  =     41953.7806 E_impro  =      1799.2554 E_vdwl   =    -16432.2564 
E_coul   =   1664778.5927 E_long   =  -2177271.0603 Press    =       -50.6007 
Volume   =   2467111.0558 
---------------- Step     9800 ----- CPU =    666.5912 (sec) ----------------
TotEng   =   -202808.7107 KinEng   =    172067.3049 Temp     =       299.9154 
PotEng   =   -374876.0156 E_bond   =     20814.8283 E_angle  =     89198.8752 
E_dihed  =     42116.5010 E_impro  =      1792.7200 E_vdwl   =    -16471.6104 
E_coul   =   1664969.8585 E_long   =  -2177297.1882 Press    =       -95.1314 
Volume   =   2467400.9343 
---------------- Step     9850 ----- CPU =    669.9933 (sec) ----------------
TotEng   =   -202424.3470 KinEng   =    172541.8782 Temp     =       300.7426 
PotEng   =   -374966.2251 E_bond   =     20751.5860 E_angle  =     89054.6435 
E_dihed  =     42047.6470 E_impro  =      1791.7190 E_vdwl   =    -16093.1004 
E_coul   =   1664779.8919 E_long   =  -2177298.6121 Press    =      -114.0470 
Volume   =   2467310.4266 
---------------- Step     9900 ----- CPU =    673.3967 (sec) ----------------
TotEng   =   -202718.4027 KinEng   =    172114.9429 Temp     =       299.9984 
PotEng   =   -374833.3456 E_bond   =     20844.9706 E_angle  =     89030.3356 
E_dihed  =     42102.0841 E_impro  =      1796.7223 E_vdwl   =    -16679.9802 
E_coul   =   1665404.2370 E_long   =  -2177331.7151 Press    =         2.5898 
Volume   =   2467015.8779 
---------------- Step     9950 ----- CPU =    676.7988 (sec) ----------------
TotEng   =   -203190.1184 KinEng   =    171712.1785 Temp     =       299.2964 
PotEng   =   -374902.2969 E_bond   =     20767.6565 E_angle  =     89072.6280 
E_dihed  =     42165.3480 E_impro  =      1786.7998 E_vdwl   =    -16467.9304 
E_coul   =   1665087.0519 E_long   =  -2177313.8508 Press    =        37.2001 
Volume   =   2466530.6064 
---------------- Step    10000 ----- CPU =    680.2011 (sec) ----------------
TotEng   =   -203338.9905 KinEng   =    171638.2646 Temp     =       299.1676 
PotEng   =   -374977.2551 E_bond   =     20788.9508 E_angle  =     88791.4557 
E_dihed  =     42117.1915 E_impro  =      1806.6567 E_vdwl   =    -16375.5099 
E_coul   =   1665161.6998 E_long   =  -2177267.6998 Press    =       -85.0298 
Volume   =   2466143.7257 
Loop time of 680.201 on 8 procs for 10000 steps with 256000 atoms

Performance: 2.540 ns/day, 9.447 hours/ns, 14.702 timesteps/s
99.6% CPU use with 8 MPI tasks x 1 OpenMP threads

MPI task timing breakdown:
Section |  min time  |  avg time  |  max time  |%varavg| %total
---------------------------------------------------------------
Pair    | 435.67     | 437.87     | 441.53     |   8.9 | 64.37
Bond    | 26.218     | 26.423     | 26.644     |   2.3 |  3.88
Kspace  | 67.776     | 71.179     | 73.265     |  21.1 | 10.46
Neigh   | 58.259     | 58.325     | 58.417     |   0.7 |  8.57
Comm    | 22.851     | 25.018     | 25.787     |  18.8 |  3.68
Output  | 0.015685   | 0.0165     | 0.019679   |   0.9 |  0.00
Modify  | 55.46      | 57.046     | 61.575     |  25.7 |  8.39
Other   |            | 4.319      |            |       |  0.63

Nlocal:          32000 ave       32093 max       31917 min
Histogram: 2 0 1 0 0 3 0 1 0 1
Nghost:        47884.6 ave       48032 max       47692 min
Histogram: 2 0 1 0 0 0 1 0 3 1
Neighs:    1.20228e+07 ave 1.20771e+07 max 1.19476e+07 min
Histogram: 1 0 0 0 2 1 1 1 1 1

Total # of neighbors = 96182526
Ave neighs/atom = 375.71299
Ave special neighs/atom = 7.431875
Neighbor list builds = 1206
Dangerous builds = 0
Total wall time: 0:11:20
Intel(R) VTune(TM) Profiler 2022.2.0 collection completed successfully. Use the "aps --report /home/ubuntu/lammps/bench/aps_result_20220703" command to generate textual and HTML reports for the profiling session.
