LAMMPS (7 Jan 2022)
  using 1 OpenMP thread(s) per MPI task
Reading data file ...
  orthogonal box = (-27.5 -38.5 -36.3646) to (27.5 38.5 36.3615)
  2 by 4 by 4 MPI processor grid
  reading atoms ...
  32000 atoms
  reading velocities ...
  32000 velocities
  scanning bonds ...
  4 = max bonds/atom
  scanning angles ...
  8 = max angles/atom
  scanning dihedrals ...
  18 = max dihedrals/atom
  scanning impropers ...
  2 = max impropers/atom
  reading bonds ...
  27723 bonds
  reading angles ...
  40467 angles
  reading dihedrals ...
  56829 dihedrals
  reading impropers ...
  1034 impropers
Finding 1-2 1-3 1-4 neighbors ...
  special bond factors lj:    0        0        0       
  special bond factors coul:  0        0        0       
     4 = max # of 1-2 neighbors
    12 = max # of 1-3 neighbors
    24 = max # of 1-4 neighbors
    26 = max # of special neighbors
  special bonds CPU = 0.004 seconds
  read_data CPU = 0.449 seconds
Finding SHAKE clusters ...
    1617 = # of size 2 clusters
    3633 = # of size 3 clusters
     747 = # of size 4 clusters
    4233 = # of frozen angles
  find clusters CPU = 0.013 seconds
Ewald initialization ...
  using 12-bit tables for long-range coulomb (../kspace.cpp:340)
  G vector (1/distance) = 0.24317651
  estimated absolute RMS force accuracy = 0.038892646
  estimated relative force accuracy = 0.00011712405
  KSpace vectors: actual max1d max3d = 5154 15 14895
                  kxmax kymax kzmax  = 11 15 14
----------------------------------------------------------
Using INTEL Package without Coprocessor.
Compiler: Intel Classic C++ 20.21.5 / Intel(R) C++ g++ 9.3 mode
SIMD compiler directives: Enabled
Precision: mixed
----------------------------------------------------------
  generated 2278 of 2278 mixed pair_coeff terms from arithmetic mixing rule
Neighbor list info ...
  update every 1 steps, delay 5 steps, check yes
  max neighbors/atom: 2000, page size: 100000
  master list distance cutoff = 12
  ghost atom cutoff = 12
  binsize = 6, bins = 10 13 13
  1 neighbor lists, perpetual/occasional/extra = 1 0 0
  (1) pair lj/charmm/coul/long/intel, perpetual
      attributes: half, newton on, intel
      pair build: half/bin/newton/intel
      stencil: half/bin/3d
      bin: intel
Setting up Verlet run ...
  Unit style    : real
  Current step  : 0
  Time step     : 2
Per MPI rank memory allocation (min/avg/max) = 52.04 | 52.62 | 53.23 Mbytes
---------------- Step        0 ----- CPU =      0.0000 (sec) ----------------
TotEng   =    -25359.1382 KinEng   =     21444.8313 Temp     =       299.0397 
PotEng   =    -46803.9695 E_bond   =      2537.9949 E_angle  =     10921.3721 
E_dihed  =      5211.7865 E_impro  =       213.5135 E_vdwl   =     -2307.8639 
E_coul   =    200896.8670 E_long   =   -264277.6397 Press    =      -144.5718 
Volume   =    307995.0335 
---------------- Step       50 ----- CPU =      2.3251 (sec) ----------------
TotEng   =    -25332.7173 KinEng   =     21500.7465 Temp     =       299.8194 
PotEng   =    -46833.4638 E_bond   =      2471.7876 E_angle  =     10836.5293 
E_dihed  =      5239.7071 E_impro  =       227.1012 E_vdwl   =     -1993.4938 
E_coul   =    200668.6168 E_long   =   -264283.7121 Press    =       241.6092 
Volume   =    308033.0096 
---------------- Step      100 ----- CPU =      4.6062 (sec) ----------------
TotEng   =    -25295.0240 KinEng   =     21590.4387 Temp     =       301.0701 
PotEng   =    -46885.4627 E_bond   =      2568.1690 E_angle  =     10781.9303 
E_dihed  =      5198.5965 E_impro  =       216.7221 E_vdwl   =     -1899.5778 
E_coul   =    200527.5388 E_long   =   -264278.8415 Press    =        12.4992 
Volume   =    308139.1416 
---------------- Step      150 ----- CPU =      6.8621 (sec) ----------------
TotEng   =    -25263.9074 KinEng   =     21517.8430 Temp     =       300.0578 
PotEng   =    -46781.7504 E_bond   =      2556.1344 E_angle  =     10853.2927 
E_dihed  =      5264.7759 E_impro  =       203.2004 E_vdwl   =     -2074.0505 
E_coul   =    200687.9831 E_long   =   -264273.0863 Press    =       245.5276 
Volume   =    308525.4206 
---------------- Step      200 ----- CPU =      9.1217 (sec) ----------------
TotEng   =    -25091.5387 KinEng   =     21523.1196 Temp     =       300.1314 
PotEng   =    -46614.6583 E_bond   =      2488.5872 E_angle  =     11071.1501 
E_dihed  =      5222.0559 E_impro  =       232.9532 E_vdwl   =     -2119.3454 
E_coul   =    200769.0345 E_long   =   -264279.0938 Press    =        83.2986 
Volume   =    309006.7359 
---------------- Step      250 ----- CPU =     11.3798 (sec) ----------------
TotEng   =    -24956.3048 KinEng   =     21606.5185 Temp     =       301.2943 
PotEng   =    -46562.8233 E_bond   =      2541.2661 E_angle  =     11112.6503 
E_dihed  =      5239.4831 E_impro  =       212.7520 E_vdwl   =     -2208.6195 
E_coul   =    200833.0158 E_long   =   -264293.3711 Press    =      -206.3459 
Volume   =    309413.6254 
---------------- Step      300 ----- CPU =     13.6437 (sec) ----------------
TotEng   =    -24997.9890 KinEng   =     21609.9164 Temp     =       301.3417 
PotEng   =    -46607.9054 E_bond   =      2569.0322 E_angle  =     10940.7736 
E_dihed  =      5223.0155 E_impro  =       220.6784 E_vdwl   =     -2256.8760 
E_coul   =    200957.9600 E_long   =   -264262.4891 Press    =      -443.3623 
Volume   =    309705.8417 
---------------- Step      350 ----- CPU =     15.9220 (sec) ----------------
TotEng   =    -25204.6161 KinEng   =     21451.3169 Temp     =       299.1301 
PotEng   =    -46655.9330 E_bond   =      2585.0952 E_angle  =     10956.6674 
E_dihed  =      5258.1013 E_impro  =       212.7167 E_vdwl   =     -2152.5550 
E_coul   =    200750.9871 E_long   =   -264266.9457 Press    =      -437.5483 
Volume   =    309855.2108 
---------------- Step      400 ----- CPU =     18.2027 (sec) ----------------
TotEng   =    -25349.1255 KinEng   =     21365.4348 Temp     =       297.9325 
PotEng   =    -46714.5603 E_bond   =      2540.7287 E_angle  =     10943.9614 
E_dihed  =      5212.0565 E_impro  =       214.9220 E_vdwl   =     -2193.7330 
E_coul   =    200846.5971 E_long   =   -264279.0929 Press    =        85.6156 
Volume   =    309862.3110 
---------------- Step      450 ----- CPU =     20.4772 (sec) ----------------
TotEng   =    -25294.6387 KinEng   =     21362.2451 Temp     =       297.8880 
PotEng   =    -46656.8838 E_bond   =      2514.3503 E_angle  =     10874.0183 
E_dihed  =      5265.6294 E_impro  =       223.8419 E_vdwl   =     -2144.4579 
E_coul   =    200884.8010 E_long   =   -264275.0668 Press    =       220.5133 
Volume   =    309851.9430 
---------------- Step      500 ----- CPU =     22.7770 (sec) ----------------
TotEng   =    -24987.1600 KinEng   =     21476.1732 Temp     =       299.4767 
PotEng   =    -46463.3333 E_bond   =      2592.8932 E_angle  =     10966.5820 
E_dihed  =      5257.6714 E_impro  =       213.7600 E_vdwl   =     -2170.9595 
E_coul   =    200950.5861 E_long   =   -264273.8665 Press    =      -254.0857 
Volume   =    309858.5068 
---------------- Step      550 ----- CPU =     25.0768 (sec) ----------------
TotEng   =    -24684.1793 KinEng   =     21720.5894 Temp     =       302.8850 
PotEng   =    -46404.7687 E_bond   =      2568.2381 E_angle  =     10949.4160 
E_dihed  =      5230.2882 E_impro  =       231.8760 E_vdwl   =     -2071.2470 
E_coul   =    200945.8372 E_long   =   -264259.1773 Press    =       340.2012 
Volume   =    309963.2207 
---------------- Step      600 ----- CPU =     27.3918 (sec) ----------------
TotEng   =    -24716.3089 KinEng   =     21621.2821 Temp     =       301.5002 
PotEng   =    -46337.5910 E_bond   =      2569.3574 E_angle  =     11005.9442 
E_dihed  =      5262.2763 E_impro  =       227.0661 E_vdwl   =     -2238.5869 
E_coul   =    201116.8309 E_long   =   -264280.4789 Press    =      -103.0691 
Volume   =    310264.4874 
Loop time of 27.3919 on 32 procs for 600 steps with 32000 atoms

Performance: 3.785 ns/day, 6.341 hours/ns, 21.904 timesteps/s
86.4% CPU use with 32 MPI tasks x 1 OpenMP threads

MPI task timing breakdown:
Section |  min time  |  avg time  |  max time  |%varavg| %total
---------------------------------------------------------------
Pair    | 0.82331    | 0.909      | 1.8698     |  18.3 |  3.32
Bond    | 0.014707   | 0.056628   | 0.086963   |  10.9 |  0.21
Kspace  | 13.925     | 14.611     | 24.542     |  47.2 | 53.34
Neigh   | 0.2413     | 0.25063    | 0.2737     |   1.8 |  0.91
Comm    | 0.19991    | 6.431      | 11.843     | 209.2 | 23.48
Output  | 0.00054502 | 0.00055857 | 0.00081501 |   0.0 |  0.00
Modify  | 0.35217    | 5.0697     | 11.336     | 235.5 | 18.51
Other   |            | 0.06311    |            |       |  0.23

Nlocal:           1000 ave        1037 max         956 min
Histogram: 2 1 4 3 5 1 6 3 3 4
Nghost:        8715.69 ave        8817 max        8629 min
Histogram: 3 2 2 5 5 7 4 2 1 1
Neighs:         373344 ave      392461 max      349132 min
Histogram: 2 2 1 4 5 4 4 4 2 4

Total # of neighbors = 11947004
Ave neighs/atom = 373.34388
Ave special neighs/atom = 7.431875
Neighbor list builds = 64
Dangerous builds = 0
Total wall time: 0:00:27
Intel(R) VTune(TM) Profiler 2022.2.0 collection completed successfully. Use the "aps --report /home/ubuntu/lammps/bench/aps_result_20220530" command to generate textual and HTML reports for the profiling session.
