LAMMPS (7 Jan 2022)
  using 1 OpenMP thread(s) per MPI task
Reading data file ...
  orthogonal box = (-27.5 -38.5 -36.3646) to (27.5 38.5 36.3615)
  1 by 2 by 1 MPI processor grid
  reading atoms ...
  32000 atoms
  reading velocities ...
  32000 velocities
  scanning bonds ...
  4 = max bonds/atom
  scanning angles ...
  8 = max angles/atom
  scanning dihedrals ...
  18 = max dihedrals/atom
  scanning impropers ...
  2 = max impropers/atom
  reading bonds ...
  27723 bonds
  reading angles ...
  40467 angles
  reading dihedrals ...
  56829 dihedrals
  reading impropers ...
  1034 impropers
Finding 1-2 1-3 1-4 neighbors ...
  special bond factors lj:    0        0        0       
  special bond factors coul:  0        0        0       
     4 = max # of 1-2 neighbors
    12 = max # of 1-3 neighbors
    24 = max # of 1-4 neighbors
    26 = max # of special neighbors
  special bonds CPU = 0.011 seconds
  read_data CPU = 0.241 seconds
Replicating atoms ...
  orthogonal box = (-27.5 -38.5 -36.3646) to (137.5 192.5 181.8137)
  1 by 2 by 1 MPI processor grid
  864000 atoms
  748521 bonds
  1092609 angles
  1534383 dihedrals
  27918 impropers
Finding 1-2 1-3 1-4 neighbors ...
  special bond factors lj:    0        0        0       
  special bond factors coul:  0        0        0       
     4 = max # of 1-2 neighbors
    12 = max # of 1-3 neighbors
    24 = max # of 1-4 neighbors
    26 = max # of special neighbors
  special bonds CPU = 0.286 seconds
  replicate CPU = 0.495 seconds
Finding SHAKE clusters ...
   43659 = # of size 2 clusters
   98091 = # of size 3 clusters
   20169 = # of size 4 clusters
  114291 = # of frozen angles
  find clusters CPU = 0.123 seconds
PPPM initialization ...
  using 12-bit tables for long-range coulomb (../kspace.cpp:340)
  G vector (1/distance) = 0.25235202
  grid = 72 90 90
  stencil order = 7
  estimated absolute RMS force accuracy = 0.029803316
  estimated relative force accuracy = 8.9751802e-05
  using single precision MKL FFT
  3d grid and FFT values/proc = 398476 291600
----------------------------------------------------------
Using INTEL Package without Coprocessor.
Compiler: Intel Classic C++ 20.21.5 / Intel(R) C++ g++ 9.3 mode
SIMD compiler directives: Enabled
Precision: mixed
----------------------------------------------------------
  generated 2278 of 2278 mixed pair_coeff terms from arithmetic mixing rule
Neighbor list info ...
  update every 1 steps, delay 5 steps, check yes
  max neighbors/atom: 2000, page size: 100000
  master list distance cutoff = 12
  ghost atom cutoff = 12
  binsize = 6, bins = 28 39 37
  1 neighbor lists, perpetual/occasional/extra = 1 0 0
  (1) pair lj/charmm/coul/long/intel, perpetual
      attributes: half, newton on, intel
      pair build: half/bin/newton/intel
      stencil: half/bin/3d
      bin: intel
Setting up Verlet run ...
  Unit style    : real
  Current step  : 0
  Time step     : 2
Per MPI rank memory allocation (min/avg/max) = 4473 | 4480 | 4487 Mbytes
---------------- Step        0 ----- CPU =      0.0000 (sec) ----------------
TotEng   =   -684670.9758 KinEng   =    579010.4447 Temp     =       299.0277 
PotEng   =  -1263681.4205 E_bond   =     68525.6859 E_angle  =    294877.1223 
E_dihed  =    140718.2350 E_impro  =      5764.8965 E_vdwl   =    -62312.3838 
E_coul   =   5692538.4980 E_long   =  -7403793.4743 Press    =      -148.6879 
Volume   =   8315865.9045 
---------------- Step       50 ----- CPU =     43.7498 (sec) ----------------
TotEng   =   -683945.5353 KinEng   =    580526.1281 Temp     =       299.8105 
PotEng   =  -1264471.6634 E_bond   =     66737.4942 E_angle  =    292591.4294 
E_dihed  =    141470.6655 E_impro  =      6132.4703 E_vdwl   =    -53811.2386 
E_coul   =   5686392.6762 E_long   =  -7403985.1604 Press    =       238.9121 
Volume   =   8316862.5490 
---------------- Step      100 ----- CPU =     88.5027 (sec) ----------------
TotEng   =   -682827.8623 KinEng   =    582915.2744 Temp     =       301.0443 
PotEng   =  -1265743.1367 E_bond   =     69335.4546 E_angle  =    291121.2236 
E_dihed  =    140366.2518 E_impro  =      5852.7461 E_vdwl   =    -51271.2070 
E_coul   =   5682697.0800 E_long   =  -7403844.6859 Press    =        14.5714 
Volume   =   8319656.0490 
---------------- Step      150 ----- CPU =    133.3229 (sec) ----------------
TotEng   =   -681934.5921 KinEng   =    581470.6672 Temp     =       300.2983 
PotEng   =  -1263405.2593 E_bond   =     69034.5913 E_angle  =    293077.1630 
E_dihed  =    142143.1362 E_impro  =      5481.5996 E_vdwl   =    -56003.8499 
E_coul   =   5686435.1941 E_long   =  -7403573.0936 Press    =       244.1751 
Volume   =   8330011.8251 
---------------- Step      200 ----- CPU =    178.2547 (sec) ----------------
TotEng   =   -677045.7327 KinEng   =    581662.0507 Temp     =       300.3971 
PotEng   =  -1258707.7834 E_bond   =     67217.4721 E_angle  =    299059.4151 
E_dihed  =    140985.4481 E_impro  =      6276.3724 E_vdwl   =    -58007.4236 
E_coul   =   5689305.5718 E_long   =  -7403544.6392 Press    =        40.8210 
Volume   =   8342999.9902 
---------------- Step      250 ----- CPU =    222.4045 (sec) ----------------
TotEng   =   -673904.9552 KinEng   =    581418.3225 Temp     =       300.2712 
PotEng   =  -1255323.2777 E_bond   =     68623.0046 E_angle  =    299579.6496 
E_dihed  =    141627.6845 E_impro  =      5762.5759 E_vdwl   =    -58463.3288 
E_coul   =   5691560.4222 E_long   =  -7404013.2857 Press    =      -156.5501 
Volume   =   8353619.5443 
---------------- Step      300 ----- CPU =    267.4338 (sec) ----------------
TotEng   =   -675767.0696 KinEng   =    580997.2891 Temp     =       300.0538 
PotEng   =  -1256764.3588 E_bond   =     69143.7625 E_angle  =    294992.6081 
E_dihed  =    140989.0867 E_impro  =      6060.7824 E_vdwl   =    -58712.8149 
E_coul   =   5694391.0759 E_long   =  -7403628.8595 Press    =      -386.6151 
Volume   =   8362032.6925 
---------------- Step      350 ----- CPU =    311.6102 (sec) ----------------
TotEng   =   -678673.4563 KinEng   =    582991.6681 Temp     =       301.0838 
PotEng   =  -1261665.1244 E_bond   =     69682.7382 E_angle  =    295891.0875 
E_dihed  =    141866.2402 E_impro  =      5643.2846 E_vdwl   =    -55442.9348 
E_coul   =   5684686.3646 E_long   =  -7403991.9047 Press    =      -328.7550 
Volume   =   8365835.5489 
---------------- Step      400 ----- CPU =    357.6430 (sec) ----------------
TotEng   =   -682507.8239 KinEng   =    578734.8023 Temp     =       298.8854 
PotEng   =  -1261242.6262 E_bond   =     68692.7859 E_angle  =    295031.6219 
E_dihed  =    140866.1037 E_impro  =      5795.9481 E_vdwl   =    -53721.3151 
E_coul   =   5685829.9635 E_long   =  -7403737.7343 Press    =       264.1745 
Volume   =   8366880.5326 
---------------- Step      450 ----- CPU =    402.7583 (sec) ----------------
TotEng   =   -684397.8318 KinEng   =    579151.8956 Temp     =       299.1008 
PotEng   =  -1263549.7274 E_bond   =     67219.8121 E_angle  =    294369.5530 
E_dihed  =    142290.7321 E_impro  =      6052.7178 E_vdwl   =    -60026.1739 
E_coul   =   5690294.3280 E_long   =  -7403750.6966 Press    =       151.5255 
Volume   =   8368884.4062 
---------------- Step      500 ----- CPU =    448.8130 (sec) ----------------
TotEng   =   -678830.3685 KinEng   =    580632.5247 Temp     =       299.8654 
PotEng   =  -1259462.8931 E_bond   =     69852.7116 E_angle  =    294569.4686 
E_dihed  =    141518.7952 E_impro  =      5884.3179 E_vdwl   =    -58917.6322 
E_coul   =   5691159.6355 E_long   =  -7403530.1896 Press    =      -220.4512 
Volume   =   8369851.5467 
---------------- Step      550 ----- CPU =    493.9623 (sec) ----------------
TotEng   =   -671811.7153 KinEng   =    584356.8412 Temp     =       301.7888 
PotEng   =  -1256168.5564 E_bond   =     68905.2989 E_angle  =    296629.9703 
E_dihed  =    140424.9511 E_impro  =      6481.3548 E_vdwl   =    -57259.1859 
E_coul   =   5692332.8750 E_long   =  -7403683.8206 Press    =       352.7919 
Volume   =   8369817.1393 
---------------- Step      600 ----- CPU =    540.1105 (sec) ----------------
TotEng   =   -669727.7218 KinEng   =    585201.0943 Temp     =       302.2248 
PotEng   =  -1254928.8162 E_bond   =     68057.5588 E_angle  =    297758.5875 
E_dihed  =    142009.8452 E_impro  =      6101.7321 E_vdwl   =    -58426.4418 
E_coul   =   5693278.2898 E_long   =  -7403708.3877 Press    =       133.5498 
Volume   =   8372360.2454 
---------------- Step      650 ----- CPU =    585.3770 (sec) ----------------
TotEng   =   -674363.7344 KinEng   =    582646.7945 Temp     =       300.9057 
PotEng   =  -1257010.5289 E_bond   =     68595.0664 E_angle  =    293784.0478 
E_dihed  =    141551.5787 E_impro  =      5687.8508 E_vdwl   =    -57959.4315 
E_coul   =   5695073.4601 E_long   =  -7403743.1011 Press    =      -211.9471 
Volume   =   8375440.9474 
---------------- Step      700 ----- CPU =    630.6312 (sec) ----------------
TotEng   =   -678576.0589 KinEng   =    580606.7155 Temp     =       299.8521 
PotEng   =  -1259182.7745 E_bond   =     67081.7666 E_angle  =    296250.5873 
E_dihed  =    141281.9730 E_impro  =      5684.2909 E_vdwl   =    -59501.9988 
E_coul   =   5693817.3926 E_long   =  -7403796.7862 Press    =       148.0960 
Volume   =   8376644.4505 
---------------- Step      750 ----- CPU =    676.8084 (sec) ----------------
TotEng   =   -679503.7898 KinEng   =    578453.6867 Temp     =       298.7402 
PotEng   =  -1257957.4765 E_bond   =     69101.8156 E_angle  =    297170.6772 
E_dihed  =    141987.2934 E_impro  =      5766.9639 E_vdwl   =    -57255.9807 
E_coul   =   5689145.1225 E_long   =  -7403873.3684 Press    =       -35.5122 
Volume   =   8374937.7205 
---------------- Step      800 ----- CPU =    722.1159 (sec) ----------------
TotEng   =   -678169.2483 KinEng   =    579649.3850 Temp     =       299.3577 
PotEng   =  -1257818.6333 E_bond   =     67661.7869 E_angle  =    298750.7941 
E_dihed  =    142060.2907 E_impro  =      6119.8226 E_vdwl   =    -56684.5100 
E_coul   =   5687920.9901 E_long   =  -7403647.8077 Press    =        18.3404 
Volume   =   8373041.0635 
---------------- Step      850 ----- CPU =    768.3559 (sec) ----------------
TotEng   =   -675437.1940 KinEng   =    581481.7691 Temp     =       300.3040 
PotEng   =  -1256918.9631 E_bond   =     68352.7071 E_angle  =    297104.3129 
E_dihed  =    141942.1856 E_impro  =      5853.8983 E_vdwl   =    -56277.5879 
E_coul   =   5689768.3820 E_long   =  -7403662.8611 Press    =       338.3985 
Volume   =   8367593.9563 
---------------- Step      900 ----- CPU =    813.7218 (sec) ----------------
TotEng   =   -673626.9616 KinEng   =    581696.4799 Temp     =       300.4149 
PotEng   =  -1255323.4415 E_bond   =     68190.6595 E_angle  =    296879.4365 
E_dihed  =    142326.1614 E_impro  =      6165.1476 E_vdwl   =    -55283.4616 
E_coul   =   5690033.7131 E_long   =  -7403635.0980 Press    =       234.4606 
Volume   =   8363608.9384 
---------------- Step      950 ----- CPU =    859.9334 (sec) ----------------
TotEng   =   -674597.3737 KinEng   =    580997.1120 Temp     =       300.0537 
PotEng   =  -1255594.4856 E_bond   =     69060.1943 E_angle  =    297528.0310 
E_dihed  =    142934.1367 E_impro  =      6332.5970 E_vdwl   =    -57489.5174 
E_coul   =   5689642.8409 E_long   =  -7403602.7681 Press    =      -146.1896 
Volume   =   8362145.5617 
---------------- Step     1000 ----- CPU =    905.3526 (sec) ----------------
TotEng   =   -677572.6631 KinEng   =    580053.1145 Temp     =       299.5662 
PotEng   =  -1257625.7776 E_bond   =     69681.8093 E_angle  =    297241.5366 
E_dihed  =    141710.3899 E_impro  =      5862.3968 E_vdwl   =    -56608.2001 
E_coul   =   5688253.3751 E_long   =  -7403767.0853 Press    =       -77.2707 
Volume   =   8361509.0710 
---------------- Step     1050 ----- CPU =    950.7642 (sec) ----------------
TotEng   =   -679260.1805 KinEng   =    578368.0437 Temp     =       298.6959 
PotEng   =  -1257628.2242 E_bond   =     69074.7907 E_angle  =    297612.7128 
E_dihed  =    141742.0617 E_impro  =      5969.0686 E_vdwl   =    -57028.6988 
E_coul   =   5688763.3487 E_long   =  -7403761.5079 Press    =       -93.5976 
Volume   =   8362091.0343 
---------------- Step     1100 ----- CPU =    997.0136 (sec) ----------------
TotEng   =   -678495.0703 KinEng   =    580327.2515 Temp     =       299.7078 
PotEng   =  -1258822.3218 E_bond   =     69459.7387 E_angle  =    296407.9882 
E_dihed  =    142039.0393 E_impro  =      6219.7488 E_vdwl   =    -58712.9993 
E_coul   =   5689658.3550 E_long   =  -7403894.1925 Press    =      -118.2124 
Volume   =   8361470.2685 
---------------- Step     1150 ----- CPU =   1042.3248 (sec) ----------------
TotEng   =   -676672.3368 KinEng   =    581477.3811 Temp     =       300.3017 
PotEng   =  -1258149.7178 E_bond   =     68604.8426 E_angle  =    296326.6176 
E_dihed  =    142333.3817 E_impro  =      5996.2273 E_vdwl   =    -55740.7673 
E_coul   =   5688047.1445 E_long   =  -7403717.1642 Press    =       183.8449 
Volume   =   8358682.1211 
---------------- Step     1200 ----- CPU =   1087.7466 (sec) ----------------
TotEng   =   -675383.5048 KinEng   =    581767.0841 Temp     =       300.4514 
PotEng   =  -1257150.5890 E_bond   =     69506.6659 E_angle  =    295686.1844 
E_dihed  =    142492.6014 E_impro  =      6157.2800 E_vdwl   =    -56172.0627 
E_coul   =   5688886.6378 E_long   =  -7403707.8959 Press    =        12.9855 
Volume   =   8356549.2805 
---------------- Step     1250 ----- CPU =   1134.1261 (sec) ----------------
TotEng   =   -675578.7219 KinEng   =    581186.2796 Temp     =       300.1514 
PotEng   =  -1256765.0016 E_bond   =     68981.7624 E_angle  =    296865.8599 
E_dihed  =    142234.5720 E_impro  =      6085.7928 E_vdwl   =    -57174.7658 
E_coul   =   5690123.1016 E_long   =  -7403881.3245 Press    =         9.4377 
Volume   =   8356181.5549 
---------------- Step     1300 ----- CPU =   1179.6157 (sec) ----------------
TotEng   =   -676935.2435 KinEng   =    581025.8763 Temp     =       300.0686 
PotEng   =  -1257961.1198 E_bond   =     69831.2931 E_angle  =    296089.5807 
E_dihed  =    142163.4506 E_impro  =      6194.4033 E_vdwl   =    -57861.3334 
E_coul   =   5689362.5675 E_long   =  -7403741.0816 Press    =      -230.3581 
Volume   =   8356364.1893 
---------------- Step     1350 ----- CPU =   1225.1150 (sec) ----------------
TotEng   =   -677654.2274 KinEng   =    579102.4414 Temp     =       299.0752 
PotEng   =  -1256756.6688 E_bond   =     69469.3728 E_angle  =    297120.7706 
E_dihed  =    142373.7091 E_impro  =      6095.8494 E_vdwl   =    -57388.5204 
E_coul   =   5689303.5960 E_long   =  -7403731.4463 Press    =       -59.1413 
Volume   =   8356904.3604 
---------------- Step     1400 ----- CPU =   1271.5081 (sec) ----------------
TotEng   =   -676997.7914 KinEng   =    579365.5681 Temp     =       299.2111 
PotEng   =  -1256363.3595 E_bond   =     69372.8388 E_angle  =    297516.7045 
E_dihed  =    142651.7893 E_impro  =      6104.0984 E_vdwl   =    -57434.3779 
E_coul   =   5689159.0642 E_long   =  -7403733.4769 Press    =       -56.4895 
Volume   =   8357467.2136 
---------------- Step     1450 ----- CPU =   1317.0131 (sec) ----------------
TotEng   =   -676066.7188 KinEng   =    581668.9221 Temp     =       300.4007 
PotEng   =  -1257735.6408 E_bond   =     69418.1025 E_angle  =    296751.3956 
E_dihed  =    142069.7333 E_impro  =      6099.3956 E_vdwl   =    -56762.9040 
E_coul   =   5688404.4517 E_long   =  -7403715.8156 Press    =      -103.3425 
Volume   =   8357145.3170 
---------------- Step     1500 ----- CPU =   1363.4518 (sec) ----------------
TotEng   =   -676525.3807 KinEng   =    581771.6452 Temp     =       300.4537 
PotEng   =  -1258297.0258 E_bond   =     69252.9642 E_angle  =    297231.0649 
E_dihed  =    142095.6940 E_impro  =      6145.7393 E_vdwl   =    -56522.5115 
E_coul   =   5687320.6830 E_long   =  -7403820.6597 Press    =        44.2428 
Volume   =   8356835.5795 
---------------- Step     1550 ----- CPU =   1408.9467 (sec) ----------------
TotEng   =   -678180.8215 KinEng   =    580591.0355 Temp     =       299.8440 
PotEng   =  -1258771.8570 E_bond   =     69036.9629 E_angle  =    296884.3512 
E_dihed  =    141752.0764 E_impro  =      5975.8092 E_vdwl   =    -56684.3576 
E_coul   =   5688103.0325 E_long   =  -7403839.7315 Press    =        39.6019 
Volume   =   8356964.9151 
---------------- Step     1600 ----- CPU =   1454.4503 (sec) ----------------
TotEng   =   -679463.1939 KinEng   =    579907.4913 Temp     =       299.4910 
PotEng   =  -1259370.6852 E_bond   =     68960.3478 E_angle  =    296757.4307 
E_dihed  =    141687.3313 E_impro  =      5814.9539 E_vdwl   =    -57271.4079 
E_coul   =   5688472.8868 E_long   =  -7403792.2279 Press    =        32.3257 
Volume   =   8357453.4675 
---------------- Step     1650 ----- CPU =   1500.8417 (sec) ----------------
TotEng   =   -679031.8335 KinEng   =    579823.2980 Temp     =       299.4475 
PotEng   =  -1258855.1316 E_bond   =     69179.5866 E_angle  =    297790.2217 
E_dihed  =    141893.7884 E_impro  =      5968.7148 E_vdwl   =    -57317.3720 
E_coul   =   5687368.9129 E_long   =  -7403738.9839 Press    =       -46.3818 
Volume   =   8357609.6888 
---------------- Step     1700 ----- CPU =   1546.3933 (sec) ----------------
TotEng   =   -677311.4882 KinEng   =    580787.7598 Temp     =       299.9456 
PotEng   =  -1258099.2481 E_bond   =     68857.7602 E_angle  =    297810.1911 
E_dihed  =    141893.1970 E_impro  =      6071.0016 E_vdwl   =    -56756.9565 
E_coul   =   5687787.7567 E_long   =  -7403762.1981 Press    =        71.3100 
Volume   =   8356868.9092 
---------------- Step     1750 ----- CPU =   1592.8839 (sec) ----------------
TotEng   =   -676095.5788 KinEng   =    580847.5091 Temp     =       299.9765 
PotEng   =  -1256943.0879 E_bond   =     69571.9588 E_angle  =    297925.0054 
E_dihed  =    142101.9244 E_impro  =      6051.9730 E_vdwl   =    -56316.8434 
E_coul   =   5687493.1630 E_long   =  -7403770.2691 Press    =       -31.3709 
Volume   =   8355433.7572 
---------------- Step     1800 ----- CPU =   1638.4536 (sec) ----------------
TotEng   =   -676027.6301 KinEng   =    581957.1197 Temp     =       300.5495 
PotEng   =  -1257984.7498 E_bond   =     69074.5917 E_angle  =    296861.3949 
E_dihed  =    141865.6430 E_impro  =      6117.1167 E_vdwl   =    -57538.1865 
E_coul   =   5689469.7082 E_long   =  -7403835.0178 Press    =      -103.0263 
Volume   =   8354189.5633 
---------------- Step     1850 ----- CPU =   1684.8976 (sec) ----------------
TotEng   =   -677082.0998 KinEng   =    581121.8349 Temp     =       300.1181 
PotEng   =  -1258203.9347 E_bond   =     69100.6380 E_angle  =    297806.0897 
E_dihed  =    141996.2889 E_impro  =      6039.7543 E_vdwl   =    -58172.7390 
E_coul   =   5688775.2079 E_long   =  -7403749.1746 Press    =        28.5878 
Volume   =   8353101.7439 
---------------- Step     1900 ----- CPU =   1731.3861 (sec) ----------------
TotEng   =   -678573.4041 KinEng   =    580715.5523 Temp     =       299.9083 
PotEng   =  -1259288.9564 E_bond   =     69194.0136 E_angle  =    296830.2260 
E_dihed  =    141937.5786 E_impro  =      6027.9450 E_vdwl   =    -56766.0980 
E_coul   =   5687262.5570 E_long   =  -7403775.1786 Press    =       -36.9047 
Volume   =   8351831.8438 
---------------- Step     1950 ----- CPU =   1776.9615 (sec) ----------------
TotEng   =   -679279.0956 KinEng   =    580823.9996 Temp     =       299.9643 
PotEng   =  -1260103.0952 E_bond   =     68735.6821 E_angle  =    297340.2796 
E_dihed  =    142090.7928 E_impro  =      5986.6588 E_vdwl   =    -56245.4549 
E_coul   =   5685797.0045 E_long   =  -7403808.0582 Press    =       -18.6291 
Volume   =   8350188.2454 
---------------- Step     2000 ----- CPU =   1822.5439 (sec) ----------------
TotEng   =   -678831.7393 KinEng   =    581081.5556 Temp     =       300.0973 
PotEng   =  -1259913.2949 E_bond   =     69373.1584 E_angle  =    297056.3758 
E_dihed  =    142027.3956 E_impro  =      5974.1970 E_vdwl   =    -56805.2397 
E_coul   =   5686198.9720 E_long   =  -7403738.1540 Press    =        -9.0484 
Volume   =   8348966.0282 
---------------- Step     2050 ----- CPU =   1869.0156 (sec) ----------------
TotEng   =   -677886.1192 KinEng   =    581229.2812 Temp     =       300.1736 
PotEng   =  -1259115.4004 E_bond   =     69506.2788 E_angle  =    297018.7069 
E_dihed  =    142627.5295 E_impro  =      5976.5978 E_vdwl   =    -57001.4948 
E_coul   =   5686593.0847 E_long   =  -7403836.1034 Press    =       -36.5405 
Volume   =   8347478.2595 
---------------- Step     2100 ----- CPU =   1914.6538 (sec) ----------------
TotEng   =   -677043.5761 KinEng   =    580706.1894 Temp     =       299.9035 
PotEng   =  -1257749.7655 E_bond   =     69943.1249 E_angle  =    297290.4753 
E_dihed  =    142317.1731 E_impro  =      5964.5116 E_vdwl   =    -56637.5866 
E_coul   =   5687184.0324 E_long   =  -7403811.4963 Press    =       -57.5482 
Volume   =   8346671.7986 
---------------- Step     2150 ----- CPU =   1961.1716 (sec) ----------------
TotEng   =   -677171.6680 KinEng   =    581242.2242 Temp     =       300.1803 
PotEng   =  -1258413.8922 E_bond   =     69072.8938 E_angle  =    298289.7394 
E_dihed  =    142205.0708 E_impro  =      6033.0931 E_vdwl   =    -56414.3382 
E_coul   =   5686194.8602 E_long   =  -7403795.2113 Press    =        73.5760 
Volume   =   8346476.0352 
---------------- Step     2200 ----- CPU =   2006.7143 (sec) ----------------
TotEng   =   -678891.1576 KinEng   =    580589.0600 Temp     =       299.8430 
PotEng   =  -1259480.2177 E_bond   =     69248.9030 E_angle  =    297939.6515 
E_dihed  =    142177.2792 E_impro  =      6101.1479 E_vdwl   =    -56404.1678 
E_coul   =   5685171.1612 E_long   =  -7403714.1925 Press    =       -37.0980 
Volume   =   8347600.6625 
---------------- Step     2250 ----- CPU =   2053.2313 (sec) ----------------
TotEng   =   -680717.1422 KinEng   =    579934.6260 Temp     =       299.5050 
PotEng   =  -1260651.7682 E_bond   =     69747.8406 E_angle  =    296968.2638 
E_dihed  =    141900.6255 E_impro  =      6042.0620 E_vdwl   =    -58301.5035 
E_coul   =   5686810.7423 E_long   =  -7403819.7989 Press    =       -94.0040 
Volume   =   8349266.9500 
---------------- Step     2300 ----- CPU =   2098.7970 (sec) ----------------
TotEng   =   -681054.5079 KinEng   =    579007.9464 Temp     =       299.0264 
PotEng   =  -1260062.4543 E_bond   =     69570.9725 E_angle  =    297135.6573 
E_dihed  =    142086.8158 E_impro  =      6000.3804 E_vdwl   =    -57453.0563 
E_coul   =   5686436.3319 E_long   =  -7403839.5560 Press    =       -81.9627 
Volume   =   8350207.4646 
---------------- Step     2350 ----- CPU =   2145.2667 (sec) ----------------
TotEng   =   -678882.8576 KinEng   =    581446.3426 Temp     =       300.2857 
PotEng   =  -1260329.2002 E_bond   =     69230.7579 E_angle  =    297379.4368 
E_dihed  =    142219.7402 E_impro  =      6121.3437 E_vdwl   =    -57885.7252 
E_coul   =   5686349.3504 E_long   =  -7403744.1040 Press    =       -63.5646 
Volume   =   8350436.3616 
---------------- Step     2400 ----- CPU =   2190.7964 (sec) ----------------
TotEng   =   -676478.9642 KinEng   =    582345.8655 Temp     =       300.7503 
PotEng   =  -1258824.8296 E_bond   =     69132.3520 E_angle  =    297890.4913 
E_dihed  =    142369.4576 E_impro  =      5985.5982 E_vdwl   =    -56168.3962 
E_coul   =   5685733.0379 E_long   =  -7403767.3705 Press    =       -30.1510 
Volume   =   8349617.1854 
---------------- Step     2450 ----- CPU =   2236.3876 (sec) ----------------
TotEng   =   -676091.0971 KinEng   =    582891.4530 Temp     =       301.0320 
PotEng   =  -1258982.5501 E_bond   =     69497.7274 E_angle  =    297309.4382 
E_dihed  =    142171.2925 E_impro  =      6026.2923 E_vdwl   =    -56007.9866 
E_coul   =   5685800.4422 E_long   =  -7403779.7560 Press    =       -17.7528 
Volume   =   8348064.4135 
---------------- Step     2500 ----- CPU =   2282.9126 (sec) ----------------
TotEng   =   -678688.8858 KinEng   =    580724.6883 Temp     =       299.9130 
PotEng   =  -1259413.5741 E_bond   =     69307.4263 E_angle  =    297720.7774 
E_dihed  =    142171.8346 E_impro  =      6061.8903 E_vdwl   =    -56272.2534 
E_coul   =   5685461.2890 E_long   =  -7403864.5383 Press    =        51.8315 
Volume   =   8346870.8294 
---------------- Step     2550 ----- CPU =   2328.5096 (sec) ----------------
TotEng   =   -681681.9419 KinEng   =    579381.7613 Temp     =       299.2195 
PotEng   =  -1261063.7032 E_bond   =     68999.4946 E_angle  =    297237.6290 
E_dihed  =    142134.9576 E_impro  =      6124.5120 E_vdwl   =    -56458.5837 
E_coul   =   5684671.1876 E_long   =  -7403772.9002 Press    =        13.7823 
Volume   =   8346703.0224 
---------------- Step     2600 ----- CPU =   2375.0065 (sec) ----------------
TotEng   =   -682291.4973 KinEng   =    579482.5230 Temp     =       299.2715 
PotEng   =  -1261774.0203 E_bond   =     69127.1120 E_angle  =    297283.0307 
E_dihed  =    141894.2865 E_impro  =      5946.8722 E_vdwl   =    -56576.5595 
E_coul   =   5684329.5297 E_long   =  -7403778.2920 Press    =       -67.1275 
Volume   =   8346190.1553 
---------------- Step     2650 ----- CPU =   2420.6484 (sec) ----------------
TotEng   =   -680595.2876 KinEng   =    579969.6160 Temp     =       299.5231 
PotEng   =  -1260564.9037 E_bond   =     69363.2442 E_angle  =    297331.9869 
E_dihed  =    142575.8688 E_impro  =      6098.0248 E_vdwl   =    -55951.6235 
E_coul   =   5683844.7205 E_long   =  -7403827.1253 Press    =       -31.7822 
Volume   =   8345310.1633 
---------------- Step     2700 ----- CPU =   2466.2140 (sec) ----------------
TotEng   =   -678305.0865 KinEng   =    582047.3136 Temp     =       300.5961 
PotEng   =  -1260352.4001 E_bond   =     69161.5844 E_angle  =    297807.0249 
E_dihed  =    142410.8081 E_impro  =      6086.0929 E_vdwl   =    -56671.8510 
E_coul   =   5684582.0193 E_long   =  -7403728.0785 Press    =       -24.5618 
Volume   =   8344630.5000 
---------------- Step     2750 ----- CPU =   2512.6890 (sec) ----------------
TotEng   =   -677397.3932 KinEng   =    581309.4321 Temp     =       300.2150 
PotEng   =  -1258706.8253 E_bond   =     69763.5645 E_angle  =    297831.2181 
E_dihed  =    142440.2262 E_impro  =      6097.2685 E_vdwl   =    -55728.2888 
E_coul   =   5684614.5806 E_long   =  -7403725.3943 Press    =        26.8012 
Volume   =   8344103.3132 
---------------- Step     2800 ----- CPU =   2558.3280 (sec) ----------------
TotEng   =   -678482.2338 KinEng   =    581447.1325 Temp     =       300.2861 
PotEng   =  -1259929.3663 E_bond   =     69254.8100 E_angle  =    297735.2709 
E_dihed  =    142155.2363 E_impro  =      6053.7069 E_vdwl   =    -56511.7956 
E_coul   =   5685056.5209 E_long   =  -7403673.1158 Press    =       -54.2913 
Volume   =   8343765.2381 
---------------- Step     2850 ----- CPU =   2604.8382 (sec) ----------------
TotEng   =   -680560.2061 KinEng   =    580770.9609 Temp     =       299.9369 
PotEng   =  -1261331.1669 E_bond   =     69191.7460 E_angle  =    297215.7018 
E_dihed  =    142206.8510 E_impro  =      5971.4766 E_vdwl   =    -56569.2511 
E_coul   =   5684396.1174 E_long   =  -7403743.8086 Press    =       -39.7405 
Volume   =   8343412.8433 
---------------- Step     2900 ----- CPU =   2650.4103 (sec) ----------------
TotEng   =   -681869.0762 KinEng   =    580124.6680 Temp     =       299.6031 
PotEng   =  -1261993.7443 E_bond   =     69109.8728 E_angle  =    297350.0689 
E_dihed  =    142325.4845 E_impro  =      6060.8413 E_vdwl   =    -57037.8463 
E_coul   =   5684023.7130 E_long   =  -7403825.8785 Press    =      -104.1073 
Volume   =   8343800.1381 
---------------- Step     2950 ----- CPU =   2696.8775 (sec) ----------------
TotEng   =   -681302.2205 KinEng   =    579884.8416 Temp     =       299.4793 
PotEng   =  -1261187.0621 E_bond   =     69419.7739 E_angle  =    296924.6107 
E_dihed  =    142041.8049 E_impro  =      5927.8655 E_vdwl   =    -56886.6185 
E_coul   =   5685081.9540 E_long   =  -7403696.4526 Press    =       -47.3131 
Volume   =   8343813.1336 
---------------- Step     3000 ----- CPU =   2742.4825 (sec) ----------------
TotEng   =   -679041.1085 KinEng   =    581321.5205 Temp     =       300.2213 
PotEng   =  -1260362.6289 E_bond   =     69634.0687 E_angle  =    297877.5367 
E_dihed  =    141994.2632 E_impro  =      6123.1021 E_vdwl   =    -56729.1529 
E_coul   =   5684491.8398 E_long   =  -7403754.2864 Press    =       -79.7222 
Volume   =   8343649.7008 
---------------- Step     3050 ----- CPU =   2788.9530 (sec) ----------------
TotEng   =   -677497.4413 KinEng   =    581364.2850 Temp     =       300.2433 
PotEng   =  -1258861.7263 E_bond   =     69497.0629 E_angle  =    298493.0603 
E_dihed  =    142091.5167 E_impro  =      5970.5249 E_vdwl   =    -56763.4101 
E_coul   =   5685587.9254 E_long   =  -7403738.4064 Press    =        12.2485 
Volume   =   8343082.9837 
---------------- Step     3100 ----- CPU =   2834.6127 (sec) ----------------
TotEng   =   -677488.5334 KinEng   =    582111.6166 Temp     =       300.6293 
PotEng   =  -1259600.1500 E_bond   =     69643.0050 E_angle  =    297959.4424 
E_dihed  =    142189.4296 E_impro  =      6047.0946 E_vdwl   =    -57401.9566 
E_coul   =   5685681.7335 E_long   =  -7403718.8985 Press    =       -12.8261 
Volume   =   8342949.5395 
---------------- Step     3150 ----- CPU =   2880.2488 (sec) ----------------
TotEng   =   -679142.8599 KinEng   =    580495.8709 Temp     =       299.7948 
PotEng   =  -1259638.7309 E_bond   =     69872.0873 E_angle  =    297812.8577 
E_dihed  =    142286.1670 E_impro  =      6002.2607 E_vdwl   =    -57241.3886 
E_coul   =   5685424.2235 E_long   =  -7403794.9385 Press    =       -41.8692 
Volume   =   8343076.0066 
---------------- Step     3200 ----- CPU =   2926.8326 (sec) ----------------
TotEng   =   -681111.2328 KinEng   =    579913.8333 Temp     =       299.4943 
PotEng   =  -1261025.0661 E_bond   =     69298.5546 E_angle  =    297816.1199 
E_dihed  =    142254.1531 E_impro  =      6031.9631 E_vdwl   =    -56250.8461 
E_coul   =   5683674.6343 E_long   =  -7403849.6450 Press    =       -22.0906 
Volume   =   8342235.1551 
---------------- Step     3250 ----- CPU =   2972.4430 (sec) ----------------
TotEng   =   -681326.9595 KinEng   =    580175.5309 Temp     =       299.6294 
PotEng   =  -1261502.4904 E_bond   =     69600.1171 E_angle  =    297147.0700 
E_dihed  =    142319.0651 E_impro  =      6064.7087 E_vdwl   =    -56135.9010 
E_coul   =   5683294.1077 E_long   =  -7403791.6579 Press    =        23.6316 
Volume   =   8341449.5858 
---------------- Step     3300 ----- CPU =   3018.1041 (sec) ----------------
TotEng   =   -679975.4719 KinEng   =    581113.2868 Temp     =       300.1137 
PotEng   =  -1261088.7587 E_bond   =     69455.4312 E_angle  =    297754.8223 
E_dihed  =    141727.0617 E_impro  =      6054.7151 E_vdwl   =    -57212.1565 
E_coul   =   5684877.5274 E_long   =  -7403746.1599 Press    =        11.6506 
Volume   =   8341272.3635 
---------------- Step     3350 ----- CPU =   3064.6930 (sec) ----------------
TotEng   =   -678475.9161 KinEng   =    582261.7892 Temp     =       300.7068 
PotEng   =  -1260737.7053 E_bond   =     69410.4171 E_angle  =    297692.0283 
E_dihed  =    142206.9932 E_impro  =      6067.5480 E_vdwl   =    -57511.0386 
E_coul   =   5685177.2962 E_long   =  -7403780.9496 Press    =       -95.8574 
Volume   =   8341136.6152 
---------------- Step     3400 ----- CPU =   3110.3490 (sec) ----------------
TotEng   =   -677980.9466 KinEng   =    581654.4872 Temp     =       300.3932 
PotEng   =  -1259635.4339 E_bond   =     69233.8243 E_angle  =    298400.2099 
E_dihed  =    142422.4909 E_impro  =      6053.6823 E_vdwl   =    -57231.7388 
E_coul   =   5685196.1393 E_long   =  -7403710.0418 Press    =       -41.6943 
Volume   =   8341295.2010 
---------------- Step     3450 ----- CPU =   3156.8880 (sec) ----------------
TotEng   =   -679192.2871 KinEng   =    580723.7800 Temp     =       299.9126 
PotEng   =  -1259916.0671 E_bond   =     69472.6281 E_angle  =    298274.7874 
E_dihed  =    142531.9325 E_impro  =      6031.9340 E_vdwl   =    -56438.6926 
E_coul   =   5683938.1616 E_long   =  -7403726.8182 Press    =        12.6215 
Volume   =   8341242.5315 
---------------- Step     3500 ----- CPU =   3202.6035 (sec) ----------------
TotEng   =   -680708.8195 KinEng   =    580054.1427 Temp     =       299.5667 
PotEng   =  -1260762.9623 E_bond   =     69666.0597 E_angle  =    298214.6952 
E_dihed  =    142437.9590 E_impro  =      6118.6776 E_vdwl   =    -55767.9626 
E_coul   =   5682341.9873 E_long   =  -7403774.3785 Press    =       -14.3223 
Volume   =   8341457.6152 
---------------- Step     3550 ----- CPU =   3248.2528 (sec) ----------------
TotEng   =   -681550.4585 KinEng   =    580398.5489 Temp     =       299.7446 
PotEng   =  -1261949.0074 E_bond   =     69352.7290 E_angle  =    297807.5809 
E_dihed  =    142476.6437 E_impro  =      6015.1139 E_vdwl   =    -56015.1903 
E_coul   =   5682172.1199 E_long   =  -7403758.0046 Press    =         3.9867 
Volume   =   8341774.8620 
---------------- Step     3600 ----- CPU =   3294.8482 (sec) ----------------
TotEng   =   -681119.9789 KinEng   =    580166.5406 Temp     =       299.6248 
PotEng   =  -1261286.5195 E_bond   =     69147.3563 E_angle  =    298028.4536 
E_dihed  =    142368.6351 E_impro  =      6068.7774 E_vdwl   =    -56719.1856 
E_coul   =   5683507.1884 E_long   =  -7403687.7446 Press    =       -38.5873 
Volume   =   8342604.6043 
---------------- Step     3650 ----- CPU =   3340.4469 (sec) ----------------
TotEng   =   -679576.2608 KinEng   =    580919.5123 Temp     =       300.0136 
PotEng   =  -1260495.7731 E_bond   =     69812.4288 E_angle  =    298324.1742 
E_dihed  =    142117.5330 E_impro  =      5980.1188 E_vdwl   =    -57298.5247 
E_coul   =   5684221.4212 E_long   =  -7403652.9243 Press    =       -50.1702 
Volume   =   8343064.5529 
---------------- Step     3700 ----- CPU =   3386.0781 (sec) ----------------
TotEng   =   -678279.3797 KinEng   =    581783.9123 Temp     =       300.4601 
PotEng   =  -1260063.2920 E_bond   =     69366.7502 E_angle  =    297911.0833 
E_dihed  =    142180.3433 E_impro  =      6077.9894 E_vdwl   =    -55668.6800 
E_coul   =   5683840.2673 E_long   =  -7403771.0454 Press    =        72.0537 
Volume   =   8342430.5244 
---------------- Step     3750 ----- CPU =   3432.6702 (sec) ----------------
TotEng   =   -678685.8946 KinEng   =    581320.2537 Temp     =       300.2206 
PotEng   =  -1260006.1483 E_bond   =     69792.1663 E_angle  =    298650.7106 
E_dihed  =    142336.5237 E_impro  =      6146.6397 E_vdwl   =    -56539.8460 
E_coul   =   5683389.4160 E_long   =  -7403781.7585 Press    =      -113.6788 
Volume   =   8342293.2337 
---------------- Step     3800 ----- CPU =   3478.3284 (sec) ----------------
TotEng   =   -679737.0177 KinEng   =    580955.6843 Temp     =       300.0323 
PotEng   =  -1260692.7019 E_bond   =     69361.7609 E_angle  =    298012.4972 
E_dihed  =    142196.2103 E_impro  =      5988.2904 E_vdwl   =    -57364.4635 
E_coul   =   5684967.3851 E_long   =  -7403854.3822 Press    =        65.2484 
Volume   =   8341261.2488 
---------------- Step     3850 ----- CPU =   3524.8479 (sec) ----------------
TotEng   =   -680665.9338 KinEng   =    581114.0510 Temp     =       300.1141 
PotEng   =  -1261779.9848 E_bond   =     69424.2318 E_angle  =    297708.0337 
E_dihed  =    142099.1631 E_impro  =      6117.3311 E_vdwl   =    -56127.0390 
E_coul   =   5682760.7401 E_long   =  -7403762.4456 Press    =       -33.5555 
Volume   =   8339903.3348 
---------------- Step     3900 ----- CPU =   3570.4658 (sec) ----------------
TotEng   =   -681839.2823 KinEng   =    579541.7328 Temp     =       299.3021 
PotEng   =  -1261381.0151 E_bond   =     69416.8471 E_angle  =    298052.8294 
E_dihed  =    142282.8150 E_impro  =      6038.0037 E_vdwl   =    -56168.9128 
E_coul   =   5682714.3204 E_long   =  -7403716.9178 Press    =       -11.1537 
Volume   =   8338709.5009 
---------------- Step     3950 ----- CPU =   3616.1174 (sec) ----------------
TotEng   =   -681672.3634 KinEng   =    579826.2153 Temp     =       299.4490 
PotEng   =  -1261498.5787 E_bond   =     69861.7077 E_angle  =    297978.1272 
E_dihed  =    142367.5203 E_impro  =      6074.2649 E_vdwl   =    -56412.9968 
E_coul   =   5682376.8388 E_long   =  -7403744.0408 Press    =        14.8693 
Volume   =   8337428.7939 
---------------- Step     4000 ----- CPU =   3662.6193 (sec) ----------------
TotEng   =   -680727.7612 KinEng   =    581849.6604 Temp     =       300.4940 
PotEng   =  -1262577.4216 E_bond   =     69644.8661 E_angle  =    297422.2587 
E_dihed  =    142240.7753 E_impro  =      6061.4024 E_vdwl   =    -54734.0859 
E_coul   =   5680580.1791 E_long   =  -7403792.8173 Press    =        46.8544 
Volume   =   8335814.0826 
---------------- Step     4050 ----- CPU =   3708.2759 (sec) ----------------
TotEng   =   -680400.7177 KinEng   =    580999.4514 Temp     =       300.0549 
PotEng   =  -1261400.1692 E_bond   =     69925.7027 E_angle  =    298266.6539 
E_dihed  =    142207.3458 E_impro  =      6107.8491 E_vdwl   =    -57210.4779 
E_coul   =   5682986.1310 E_long   =  -7403683.3736 Press    =       -70.0620 
Volume   =   8334643.2556 
---------------- Step     4100 ----- CPU =   3754.8329 (sec) ----------------
TotEng   =   -680702.5003 KinEng   =    581085.4034 Temp     =       300.0993 
PotEng   =  -1261787.9036 E_bond   =     69847.2938 E_angle  =    298317.6505 
E_dihed  =    142079.4266 E_impro  =      6007.5683 E_vdwl   =    -56194.4075 
E_coul   =   5681978.8439 E_long   =  -7403824.2793 Press    =        15.1328 
Volume   =   8333062.6632 
---------------- Step     4150 ----- CPU =   3800.5307 (sec) ----------------
TotEng   =   -681450.6238 KinEng   =    581115.6169 Temp     =       300.1149 
PotEng   =  -1262566.2407 E_bond   =     69473.8156 E_angle  =    298156.9997 
E_dihed  =    142075.0165 E_impro  =      6070.4467 E_vdwl   =    -56236.7603 
E_coul   =   5681692.6216 E_long   =  -7403798.3804 Press    =         2.8238 
Volume   =   8331513.6162 
---------------- Step     4200 ----- CPU =   3846.1729 (sec) ----------------
TotEng   =   -681747.3566 KinEng   =    580843.7692 Temp     =       299.9745 
PotEng   =  -1262591.1259 E_bond   =     69573.7825 E_angle  =    297512.1500 
E_dihed  =    142301.5340 E_impro  =      6047.3741 E_vdwl   =    -56891.6931 
E_coul   =   5682637.0306 E_long   =  -7403771.3039 Press    =       -51.5096 
Volume   =   8331111.3038 
---------------- Step     4250 ----- CPU =   3892.7662 (sec) ----------------
TotEng   =   -681170.3170 KinEng   =    580863.2627 Temp     =       299.9846 
PotEng   =  -1262033.5797 E_bond   =     69738.2556 E_angle  =    297696.1778 
E_dihed  =    142295.7775 E_impro  =      6052.7243 E_vdwl   =    -56575.1797 
E_coul   =   5682554.4726 E_long   =  -7403795.8078 Press    =       -23.4522 
Volume   =   8331034.6693 
---------------- Step     4300 ----- CPU =   3938.3727 (sec) ----------------
TotEng   =   -680327.8872 KinEng   =    581233.0884 Temp     =       300.1756 
PotEng   =  -1261560.9756 E_bond   =     69865.7646 E_angle  =    297807.3917 
E_dihed  =    142379.2355 E_impro  =      6051.2121 E_vdwl   =    -56534.3972 
E_coul   =   5682650.5997 E_long   =  -7403780.7820 Press    =       -50.5021 
Volume   =   8331585.4619 
---------------- Step     4350 ----- CPU =   3985.0058 (sec) ----------------
TotEng   =   -680158.4398 KinEng   =    580811.3606 Temp     =       299.9578 
PotEng   =  -1260969.8004 E_bond   =     69476.1080 E_angle  =    298271.4705 
E_dihed  =    142145.3515 E_impro  =      6080.3691 E_vdwl   =    -55511.8352 
E_coul   =   5682405.2452 E_long   =  -7403836.5094 Press    =        21.1262 
Volume   =   8332473.8679 
---------------- Step     4400 ----- CPU =   4030.6675 (sec) ----------------
TotEng   =   -680453.3791 KinEng   =    581004.8529 Temp     =       300.0577 
PotEng   =  -1261458.2320 E_bond   =     69792.7985 E_angle  =    297990.6920 
E_dihed  =    142384.3245 E_impro  =      6081.0054 E_vdwl   =    -57325.4515 
E_coul   =   5683351.3014 E_long   =  -7403732.9023 Press    =       -61.5552 
Volume   =   8334239.0251 
---------------- Step     4450 ----- CPU =   4077.2058 (sec) ----------------
TotEng   =   -680880.6449 KinEng   =    580299.4440 Temp     =       299.6934 
PotEng   =  -1261180.0888 E_bond   =     69789.0844 E_angle  =    298471.7020 
E_dihed  =    142174.4158 E_impro  =      6132.1855 E_vdwl   =    -56557.8982 
E_coul   =   5682622.7914 E_long   =  -7403812.3698 Press    =       -39.0154 
Volume   =   8335735.8478 
---------------- Step     4500 ----- CPU =   4122.8923 (sec) ----------------
TotEng   =   -681119.0082 KinEng   =    581069.4313 Temp     =       300.0911 
PotEng   =  -1262188.4394 E_bond   =     69710.0845 E_angle  =    298398.2398 
E_dihed  =    142239.1213 E_impro  =      5990.5904 E_vdwl   =    -57063.7072 
E_coul   =   5682370.9834 E_long   =  -7403833.7517 Press    =       -68.4248 
Volume   =   8335755.7430 
---------------- Step     4550 ----- CPU =   4169.5118 (sec) ----------------
TotEng   =   -681539.9899 KinEng   =    580591.3343 Temp     =       299.8441 
PotEng   =  -1262131.3243 E_bond   =     69190.9869 E_angle  =    298518.2416 
E_dihed  =    142070.9919 E_impro  =      6098.2567 E_vdwl   =    -56475.2301 
E_coul   =   5682280.6083 E_long   =  -7403815.1795 Press    =       -29.5515 
Volume   =   8335255.7942 
---------------- Step     4600 ----- CPU =   4215.1396 (sec) ----------------
TotEng   =   -681803.2272 KinEng   =    580730.6048 Temp     =       299.9161 
PotEng   =  -1262533.8319 E_bond   =     69270.7704 E_angle  =    298572.1265 
E_dihed  =    142377.1219 E_impro  =      6035.2454 E_vdwl   =    -55763.6070 
E_coul   =   5680767.3767 E_long   =  -7403792.8659 Press    =       -52.3887 
Volume   =   8334301.3836 
---------------- Step     4650 ----- CPU =   4261.6229 (sec) ----------------
TotEng   =   -681603.4970 KinEng   =    580880.8443 Temp     =       299.9937 
PotEng   =  -1262484.3413 E_bond   =     69643.7438 E_angle  =    298394.0169 
E_dihed  =    142091.3744 E_impro  =      6105.4895 E_vdwl   =    -56980.4468 
E_coul   =   5682064.4125 E_long   =  -7403802.9316 Press    =      -116.6940 
Volume   =   8332438.7549 
---------------- Step     4700 ----- CPU =   4308.2324 (sec) ----------------
TotEng   =   -681517.3525 KinEng   =    581642.0072 Temp     =       300.3868 
PotEng   =  -1263159.3597 E_bond   =     69267.7862 E_angle  =    297570.4299 
E_dihed  =    142147.1903 E_impro  =      6019.8980 E_vdwl   =    -55485.2574 
E_coul   =   5681068.2257 E_long   =  -7403747.6325 Press    =        24.1862 
Volume   =   8330866.2880 
---------------- Step     4750 ----- CPU =   4353.8740 (sec) ----------------
TotEng   =   -682149.4139 KinEng   =    580966.4233 Temp     =       300.0379 
PotEng   =  -1263115.8372 E_bond   =     69502.7660 E_angle  =    298570.3372 
E_dihed  =    142125.4319 E_impro  =      6076.6509 E_vdwl   =    -55987.1229 
E_coul   =   5680383.4983 E_long   =  -7403787.3987 Press    =         8.7498 
Volume   =   8329156.9086 
---------------- Step     4800 ----- CPU =   4400.4412 (sec) ----------------
TotEng   =   -683053.0714 KinEng   =    580605.4035 Temp     =       299.8514 
PotEng   =  -1263658.4750 E_bond   =     69323.1308 E_angle  =    297464.9647 
E_dihed  =    142228.3057 E_impro  =      6036.8906 E_vdwl   =    -55738.2856 
E_coul   =   5680848.1602 E_long   =  -7403821.6415 Press    =        57.0066 
Volume   =   8326916.4076 
---------------- Step     4850 ----- CPU =   4446.1392 (sec) ----------------
TotEng   =   -683441.2347 KinEng   =    580467.2549 Temp     =       299.7801 
PotEng   =  -1263908.4896 E_bond   =     69455.7932 E_angle  =    297658.9354 
E_dihed  =    141904.9758 E_impro  =      6055.2888 E_vdwl   =    -56310.5617 
E_coul   =   5681215.3504 E_long   =  -7403888.2715 Press    =        34.8468 
Volume   =   8325433.5352 
---------------- Step     4900 ----- CPU =   4491.8907 (sec) ----------------
TotEng   =   -683016.9702 KinEng   =    580960.2225 Temp     =       300.0347 
PotEng   =  -1263977.1928 E_bond   =     69682.7617 E_angle  =    297791.6530 
E_dihed  =    141953.5240 E_impro  =      6016.8602 E_vdwl   =    -55980.2008 
E_coul   =   5680372.6117 E_long   =  -7403814.4026 Press    =        -5.7636 
Volume   =   8325289.3502 
---------------- Step     4950 ----- CPU =   4538.5658 (sec) ----------------
TotEng   =   -682094.1694 KinEng   =    580134.2652 Temp     =       299.6081 
PotEng   =  -1262228.4346 E_bond   =     69716.9837 E_angle  =    298644.7429 
E_dihed  =    142195.8147 E_impro  =      6021.6674 E_vdwl   =    -55363.7389 
E_coul   =   5680393.3152 E_long   =  -7403837.2195 Press    =        36.2449 
Volume   =   8325429.0194 
---------------- Step     5000 ----- CPU =   4584.3639 (sec) ----------------
TotEng   =   -681310.4457 KinEng   =    581968.8257 Temp     =       300.5555 
PotEng   =  -1263279.2713 E_bond   =     69647.9353 E_angle  =    298656.5422 
E_dihed  =    142098.5672 E_impro  =      5976.1425 E_vdwl   =    -57039.9209 
E_coul   =   5681235.4566 E_long   =  -7403853.9940 Press    =        -0.0983 
Volume   =   8325964.2810 
---------------- Step     5050 ----- CPU =   4631.0953 (sec) ----------------
TotEng   =   -681472.5083 KinEng   =    580770.9924 Temp     =       299.9369 
PotEng   =  -1262243.5007 E_bond   =     69656.8423 E_angle  =    298645.0064 
E_dihed  =    141906.0249 E_impro  =      6134.8965 E_vdwl   =    -56438.4550 
E_coul   =   5681658.9359 E_long   =  -7403806.7517 Press    =        32.3393 
Volume   =   8326198.1711 
---------------- Step     5100 ----- CPU =   4676.8258 (sec) ----------------
TotEng   =   -682037.5391 KinEng   =    581945.7782 Temp     =       300.5436 
PotEng   =  -1263983.3173 E_bond   =     69342.5616 E_angle  =    298114.4349 
E_dihed  =    141972.5784 E_impro  =      6066.6811 E_vdwl   =    -55766.9011 
E_coul   =   5680160.4956 E_long   =  -7403873.1677 Press    =        85.6326 
Volume   =   8326418.4597 
---------------- Step     5150 ----- CPU =   4723.4425 (sec) ----------------
TotEng   =   -682868.7684 KinEng   =    579678.2795 Temp     =       299.3726 
PotEng   =  -1262547.0479 E_bond   =     70047.6383 E_angle  =    297801.0997 
E_dihed  =    142293.4929 E_impro  =      6037.9278 E_vdwl   =    -55786.3303 
E_coul   =   5680814.1890 E_long   =  -7403755.0653 Press    =       -69.3684 
Volume   =   8327289.1184 
---------------- Step     5200 ----- CPU =   4769.1262 (sec) ----------------
TotEng   =   -682810.4434 KinEng   =    580860.2566 Temp     =       299.9830 
PotEng   =  -1263670.7000 E_bond   =     69724.5053 E_angle  =    297713.7491 
E_dihed  =    142171.0828 E_impro  =      6139.1921 E_vdwl   =    -55521.3904 
E_coul   =   5679925.7746 E_long   =  -7403823.6136 Press    =         5.8207 
Volume   =   8327942.8367 
---------------- Step     5250 ----- CPU =   4814.8096 (sec) ----------------
TotEng   =   -682022.6445 KinEng   =    581366.0315 Temp     =       300.2442 
PotEng   =  -1263388.6759 E_bond   =     69603.9788 E_angle  =    298879.4290 
E_dihed  =    142365.4391 E_impro  =      6104.9200 E_vdwl   =    -55708.0698 
E_coul   =   5679140.8562 E_long   =  -7403775.2292 Press    =        30.4028 
Volume   =   8328946.0412 
---------------- Step     5300 ----- CPU =   4861.4180 (sec) ----------------
TotEng   =   -682381.8083 KinEng   =    581948.6230 Temp     =       300.5451 
PotEng   =  -1264330.4313 E_bond   =     69782.3479 E_angle  =    298245.9264 
E_dihed  =    142262.3354 E_impro  =      5993.7702 E_vdwl   =    -56012.0682 
E_coul   =   5679230.4183 E_long   =  -7403833.1613 Press    =       -49.0941 
Volume   =   8330177.6261 
---------------- Step     5350 ----- CPU =   4907.0758 (sec) ----------------
TotEng   =   -682745.2179 KinEng   =    579934.7690 Temp     =       299.5051 
PotEng   =  -1262679.9869 E_bond   =     70006.9737 E_angle  =    298443.4211 
E_dihed  =    142219.7267 E_impro  =      6055.3765 E_vdwl   =    -57078.0440 
E_coul   =   5681536.1893 E_long   =  -7403863.6303 Press    =        12.4234 
Volume   =   8331443.3762 
---------------- Step     5400 ----- CPU =   4953.5732 (sec) ----------------
TotEng   =   -681976.7304 KinEng   =    581242.5812 Temp     =       300.1805 
PotEng   =  -1263219.3116 E_bond   =     69606.6058 E_angle  =    298560.5438 
E_dihed  =    142148.5518 E_impro  =      6064.4139 E_vdwl   =    -56192.9094 
E_coul   =   5680402.8655 E_long   =  -7403809.3829 Press    =       -45.8349 
Volume   =   8332827.8026 
---------------- Step     5450 ----- CPU =   4999.3003 (sec) ----------------
TotEng   =   -681059.7334 KinEng   =    581570.5814 Temp     =       300.3499 
PotEng   =  -1262630.3148 E_bond   =     70039.1768 E_angle  =    298616.3131 
E_dihed  =    142441.9302 E_impro  =      6083.2705 E_vdwl   =    -56224.7625 
E_coul   =   5680196.0870 E_long   =  -7403782.3299 Press    =       -94.2463 
Volume   =   8333289.5454 
---------------- Step     5500 ----- CPU =   5045.9179 (sec) ----------------
TotEng   =   -681426.4851 KinEng   =    581814.4196 Temp     =       300.4758 
PotEng   =  -1263240.9047 E_bond   =     69686.5280 E_angle  =    298486.0038 
E_dihed  =    142536.8676 E_impro  =      6052.2818 E_vdwl   =    -55558.0263 
E_coul   =   5679314.6156 E_long   =  -7403759.1753 Press    =       -25.0740 
Volume   =   8332524.5652 
---------------- Step     5550 ----- CPU =   5091.6618 (sec) ----------------
TotEng   =   -682788.9452 KinEng   =    580995.4377 Temp     =       300.0528 
PotEng   =  -1263784.3829 E_bond   =     69524.7552 E_angle  =    298400.9260 
E_dihed  =    142359.7561 E_impro  =      6026.0304 E_vdwl   =    -54839.1138 
E_coul   =   5678532.6903 E_long   =  -7403789.4271 Press    =        93.0332 
Volume   =   8331775.9077 
---------------- Step     5600 ----- CPU =   5137.3218 (sec) ----------------
TotEng   =   -683522.1780 KinEng   =    580082.7052 Temp     =       299.5815 
PotEng   =  -1263604.8831 E_bond   =     69513.3305 E_angle  =    298602.0793 
E_dihed  =    142252.1347 E_impro  =      6049.8852 E_vdwl   =    -55956.9572 
E_coul   =   5679762.7990 E_long   =  -7403828.1546 Press    =       -10.2926 
Volume   =   8331006.0368 
---------------- Step     5650 ----- CPU =   5183.9174 (sec) ----------------
TotEng   =   -682705.4349 KinEng   =    580934.9390 Temp     =       300.0216 
PotEng   =  -1263640.3739 E_bond   =     69437.6309 E_angle  =    298617.7398 
E_dihed  =    142697.7266 E_impro  =      5992.0596 E_vdwl   =    -55397.4427 
E_coul   =   5678850.9753 E_long   =  -7403839.0634 Press    =         1.1710 
Volume   =   8330299.7869 
---------------- Step     5700 ----- CPU =   5229.5751 (sec) ----------------
TotEng   =   -681279.7229 KinEng   =    581636.2845 Temp     =       300.3838 
PotEng   =  -1262916.0075 E_bond   =     69623.3600 E_angle  =    299127.0979 
E_dihed  =    142295.4890 E_impro  =      5974.5076 E_vdwl   =    -55811.4261 
E_coul   =   5679718.8708 E_long   =  -7403843.9066 Press    =        -7.7615 
Volume   =   8331018.5475 
---------------- Step     5750 ----- CPU =   5276.1916 (sec) ----------------
TotEng   =   -680454.6357 KinEng   =    581448.6760 Temp     =       300.2869 
PotEng   =  -1261903.3117 E_bond   =     69463.5925 E_angle  =    299331.5473 
E_dihed  =    142280.0153 E_impro  =      6069.4756 E_vdwl   =    -55966.0176 
E_coul   =   5680749.9552 E_long   =  -7403831.8799 Press    =       -23.4803 
Volume   =   8332071.7094 
---------------- Step     5800 ----- CPU =   5321.9048 (sec) ----------------
TotEng   =   -680471.5720 KinEng   =    582147.4668 Temp     =       300.6478 
PotEng   =  -1262619.0389 E_bond   =     69633.4398 E_angle  =    298774.2969 
E_dihed  =    142512.8776 E_impro  =      5976.2596 E_vdwl   =    -56359.1563 
E_coul   =   5680578.6686 E_long   =  -7403735.4252 Press    =       -35.6646 
Volume   =   8332724.3213 
---------------- Step     5850 ----- CPU =   5368.4764 (sec) ----------------
TotEng   =   -681625.3798 KinEng   =    580617.7533 Temp     =       299.8578 
PotEng   =  -1262243.1331 E_bond   =     70054.7131 E_angle  =    299049.5132 
E_dihed  =    142513.5844 E_impro  =      6039.7864 E_vdwl   =    -56092.3073 
E_coul   =   5680024.8962 E_long   =  -7403833.3190 Press    =      -122.2227 
Volume   =   8333396.9295 
---------------- Step     5900 ----- CPU =   5414.1729 (sec) ----------------
TotEng   =   -682838.6320 KinEng   =    580202.7734 Temp     =       299.6435 
PotEng   =  -1263041.4054 E_bond   =     69836.3678 E_angle  =    298565.5701 
E_dihed  =    142292.2319 E_impro  =      6014.3692 E_vdwl   =    -56628.6709 
E_coul   =   5680761.3820 E_long   =  -7403882.6554 Press    =        57.5747 
Volume   =   8333499.1221 
---------------- Step     5950 ----- CPU =   5459.8857 (sec) ----------------
TotEng   =   -683012.8284 KinEng   =    580684.1545 Temp     =       299.8921 
PotEng   =  -1263696.9829 E_bond   =     69772.0782 E_angle  =    298494.5516 
E_dihed  =    142266.9595 E_impro  =      6141.5670 E_vdwl   =    -54994.3138 
E_coul   =   5678421.5467 E_long   =  -7403799.3720 Press    =       -20.1959 
Volume   =   8333662.0138 
---------------- Step     6000 ----- CPU =   5506.4368 (sec) ----------------
TotEng   =   -682317.5947 KinEng   =    580551.0194 Temp     =       299.8233 
PotEng   =  -1262868.6142 E_bond   =     69663.2164 E_angle  =    298743.6107 
E_dihed  =    142221.5838 E_impro  =      6115.5505 E_vdwl   =    -56005.4200 
E_coul   =   5680208.7181 E_long   =  -7403815.8736 Press    =       -53.5896 
Volume   =   8334324.5936 
---------------- Step     6050 ----- CPU =   5552.1007 (sec) ----------------
TotEng   =   -681115.6636 KinEng   =    581306.7094 Temp     =       300.2136 
PotEng   =  -1262422.3730 E_bond   =     69982.2072 E_angle  =    299268.5774 
E_dihed  =    142103.8461 E_impro  =      6107.1543 E_vdwl   =    -56441.2939 
E_coul   =   5680355.0608 E_long   =  -7403797.9249 Press    =       -29.3728 
Volume   =   8335061.7379 
---------------- Step     6100 ----- CPU =   5598.6229 (sec) ----------------
TotEng   =   -680483.8690 KinEng   =    581380.1187 Temp     =       300.2515 
PotEng   =  -1261863.9877 E_bond   =     69808.4317 E_angle  =    298969.7936 
E_dihed  =    142446.7941 E_impro  =      6072.3877 E_vdwl   =    -56926.6514 
E_coul   =   5681583.4778 E_long   =  -7403818.2212 Press    =       -92.8229 
Volume   =   8335418.1114 
---------------- Step     6150 ----- CPU =   5644.2843 (sec) ----------------
TotEng   =   -680584.5467 KinEng   =    581582.7278 Temp     =       300.3562 
PotEng   =  -1262167.2745 E_bond   =     69576.3246 E_angle  =    299264.0833 
E_dihed  =    142436.6586 E_impro  =      5966.9431 E_vdwl   =    -56141.1166 
E_coul   =   5680605.5362 E_long   =  -7403875.7036 Press    =        20.5768 
Volume   =   8335061.4898 
---------------- Step     6200 ----- CPU =   5690.9350 (sec) ----------------
TotEng   =   -681534.1942 KinEng   =    581038.7051 Temp     =       300.0752 
PotEng   =  -1262572.8993 E_bond   =     69925.5633 E_angle  =    299187.4756 
E_dihed  =    142264.5354 E_impro  =      6040.5381 E_vdwl   =    -55753.2877 
E_coul   =   5679585.2669 E_long   =  -7403822.9908 Press    =       -72.3437 
Volume   =   8334279.6092 
---------------- Step     6250 ----- CPU =   5736.6399 (sec) ----------------
TotEng   =   -682949.1857 KinEng   =    580690.2910 Temp     =       299.8953 
PotEng   =  -1263639.4768 E_bond   =     70044.5282 E_angle  =    299166.4996 
E_dihed  =    142094.6263 E_impro  =      6039.3466 E_vdwl   =    -55351.4942 
E_coul   =   5678265.8294 E_long   =  -7403898.8127 Press    =        59.5700 
Volume   =   8333110.8097 
---------------- Step     6300 ----- CPU =   5782.2439 (sec) ----------------
TotEng   =   -684102.8403 KinEng   =    580373.2844 Temp     =       299.7315 
PotEng   =  -1264476.1246 E_bond   =     69698.2807 E_angle  =    298676.9161 
E_dihed  =    141988.5129 E_impro  =      6070.3084 E_vdwl   =    -55037.8929 
E_coul   =   5677998.1157 E_long   =  -7403870.3655 Press    =        33.7500 
Volume   =   8332401.1344 
---------------- Step     6350 ----- CPU =   5828.7611 (sec) ----------------
TotEng   =   -683863.2142 KinEng   =    579466.5264 Temp     =       299.2632 
PotEng   =  -1263329.7406 E_bond   =     69463.9109 E_angle  =    299859.9131 
E_dihed  =    142282.0445 E_impro  =      6011.1457 E_vdwl   =    -55367.0633 
E_coul   =   5678234.1633 E_long   =  -7403813.8547 Press    =       -70.9043 
Volume   =   8332215.7495 
---------------- Step     6400 ----- CPU =   5874.4357 (sec) ----------------
TotEng   =   -682501.2971 KinEng   =    581155.3609 Temp     =       300.1354 
PotEng   =  -1263656.6580 E_bond   =     69729.4645 E_angle  =    298693.0837 
E_dihed  =    142300.2588 E_impro  =      6120.8656 E_vdwl   =    -55217.1342 
E_coul   =   5678519.4232 E_long   =  -7403802.6194 Press    =        71.3967 
Volume   =   8331563.0164 
---------------- Step     6450 ----- CPU =   5920.1146 (sec) ----------------
TotEng   =   -681298.1024 KinEng   =    581289.9261 Temp     =       300.2049 
PotEng   =  -1262588.0285 E_bond   =     69967.1855 E_angle  =    299031.3598 
E_dihed  =    142195.1625 E_impro  =      6050.7839 E_vdwl   =    -55547.4720 
E_coul   =   5679521.4334 E_long   =  -7403806.4816 Press    =       -17.8092 
Volume   =   8331672.6583 
---------------- Step     6500 ----- CPU =   5966.7251 (sec) ----------------
TotEng   =   -680925.0298 KinEng   =    581677.6904 Temp     =       300.4052 
PotEng   =  -1262602.7202 E_bond   =     70217.2607 E_angle  =    299651.7196 
E_dihed  =    142113.7471 E_impro  =      5965.8426 E_vdwl   =    -55904.6682 
E_coul   =   5679137.5829 E_long   =  -7403784.2050 Press    =        -8.1285 
Volume   =   8332276.0164 
---------------- Step     6550 ----- CPU =   6012.4134 (sec) ----------------
TotEng   =   -681691.6653 KinEng   =    581206.8079 Temp     =       300.1620 
PotEng   =  -1262898.4732 E_bond   =     69741.8217 E_angle  =    299541.4839 
E_dihed  =    142120.8968 E_impro  =      6037.7900 E_vdwl   =    -56519.0435 
E_coul   =   5679953.9578 E_long   =  -7403775.3799 Press    =       -50.3264 
Volume   =   8332658.8789 
---------------- Step     6600 ----- CPU =   6058.9227 (sec) ----------------
TotEng   =   -682760.4100 KinEng   =    581027.2070 Temp     =       300.0693 
PotEng   =  -1263787.6170 E_bond   =     69811.7232 E_angle  =    299027.4417 
E_dihed  =    142183.0742 E_impro  =      6047.6320 E_vdwl   =    -56792.4190 
E_coul   =   5679812.4502 E_long   =  -7403877.5192 Press    =      -111.0437 
Volume   =   8332342.1018 
---------------- Step     6650 ----- CPU =   6104.6042 (sec) ----------------
TotEng   =   -683401.2077 KinEng   =    580430.9870 Temp     =       299.7613 
PotEng   =  -1263832.1947 E_bond   =     70029.5324 E_angle  =    299159.2991 
E_dihed  =    142085.1825 E_impro  =      5930.1352 E_vdwl   =    -55728.5590 
E_coul   =   5678468.2846 E_long   =  -7403776.0696 Press    =       -26.0674 
Volume   =   8330687.8697 
---------------- Step     6700 ----- CPU =   6150.3008 (sec) ----------------
TotEng   =   -683573.7130 KinEng   =    580750.2143 Temp     =       299.9262 
PotEng   =  -1264323.9273 E_bond   =     70163.7552 E_angle  =    299004.7997 
E_dihed  =    141981.7092 E_impro  =      6010.5402 E_vdwl   =    -55281.7298 
E_coul   =   5677598.0352 E_long   =  -7403801.0370 Press    =         3.4762 
Volume   =   8329180.3114 
---------------- Step     6750 ----- CPU =   6196.8833 (sec) ----------------
TotEng   =   -683537.8979 KinEng   =    580705.5290 Temp     =       299.9031 
PotEng   =  -1264243.4269 E_bond   =     69924.9746 E_angle  =    299255.5782 
E_dihed  =    142010.9567 E_impro  =      6059.4177 E_vdwl   =    -55351.5220 
E_coul   =   5677668.4086 E_long   =  -7403811.2408 Press    =        24.3773 
Volume   =   8327733.7338 
---------------- Step     6800 ----- CPU =   6242.6168 (sec) ----------------
TotEng   =   -683232.1866 KinEng   =    580579.1672 Temp     =       299.8379 
PotEng   =  -1263811.3538 E_bond   =     69471.2901 E_angle  =    299187.7722 
E_dihed  =    142289.4877 E_impro  =      6204.5787 E_vdwl   =    -54959.9724 
E_coul   =   5677881.5077 E_long   =  -7403886.0178 Press    =         5.7389 
Volume   =   8326229.3462 
---------------- Step     6850 ----- CPU =   6289.1794 (sec) ----------------
TotEng   =   -682706.4717 KinEng   =    581077.9505 Temp     =       300.0955 
PotEng   =  -1263784.4223 E_bond   =     69828.4613 E_angle  =    299216.0765 
E_dihed  =    142451.3706 E_impro  =      6085.0209 E_vdwl   =    -55561.4581 
E_coul   =   5678102.8208 E_long   =  -7403906.7142 Press    =        -3.5217 
Volume   =   8325511.9087 
---------------- Step     6900 ----- CPU =   6334.8758 (sec) ----------------
TotEng   =   -682628.3582 KinEng   =    580792.9591 Temp     =       299.9483 
PotEng   =  -1263421.3173 E_bond   =     69926.8321 E_angle  =    299181.8884 
E_dihed  =    142469.6244 E_impro  =      6102.7363 E_vdwl   =    -55359.4768 
E_coul   =   5678124.5981 E_long   =  -7403867.5199 Press    =       -17.9805 
Volume   =   8325097.9104 
---------------- Step     6950 ----- CPU =   6380.6085 (sec) ----------------
TotEng   =   -683139.7864 KinEng   =    579994.5764 Temp     =       299.5360 
PotEng   =  -1263134.3627 E_bond   =     69946.0656 E_angle  =    299424.5582 
E_dihed  =    142337.9663 E_impro  =      6234.9453 E_vdwl   =    -54590.4959 
E_coul   =   5677329.7111 E_long   =  -7403817.1133 Press    =        97.6327 
Volume   =   8324774.0093 
---------------- Step     7000 ----- CPU =   6427.2566 (sec) ----------------
TotEng   =   -683152.9523 KinEng   =    580862.8502 Temp     =       299.9844 
PotEng   =  -1264015.8025 E_bond   =     69545.4968 E_angle  =    299162.5254 
E_dihed  =    142333.7484 E_impro  =      6021.8991 E_vdwl   =    -55679.6365 
E_coul   =   5678373.1731 E_long   =  -7403773.0088 Press    =        21.2649 
Volume   =   8325700.8717 
---------------- Step     7050 ----- CPU =   6472.9525 (sec) ----------------
TotEng   =   -682637.5331 KinEng   =    580502.4715 Temp     =       299.7983 
PotEng   =  -1263140.0046 E_bond   =     69852.6258 E_angle  =    299452.9502 
E_dihed  =    142585.9914 E_impro  =      6152.7050 E_vdwl   =    -55797.3160 
E_coul   =   5678531.7831 E_long   =  -7403918.7441 Press    =       -91.4318 
Volume   =   8326568.6611 
---------------- Step     7100 ----- CPU =   6519.6119 (sec) ----------------
TotEng   =   -682104.0596 KinEng   =    580718.1680 Temp     =       299.9097 
PotEng   =  -1262822.2275 E_bond   =     69947.5061 E_angle  =    299329.0532 
E_dihed  =    142182.5420 E_impro  =      6111.2160 E_vdwl   =    -55191.9319 
E_coul   =   5678595.7844 E_long   =  -7403796.3973 Press    =       -22.8032 
Volume   =   8326168.8811 
---------------- Step     7150 ----- CPU =   6565.3525 (sec) ----------------
TotEng   =   -681867.9237 KinEng   =    581345.1965 Temp     =       300.2335 
PotEng   =  -1263213.1202 E_bond   =     69721.8525 E_angle  =    299707.4007 
E_dihed  =    142552.2830 E_impro  =      5972.0853 E_vdwl   =    -54787.0093 
E_coul   =   5677457.9542 E_long   =  -7403837.6866 Press    =        56.9362 
Volume   =   8325774.5752 
---------------- Step     7200 ----- CPU =   6611.0862 (sec) ----------------
TotEng   =   -682542.6099 KinEng   =    581402.0807 Temp     =       300.2629 
PotEng   =  -1263944.6906 E_bond   =     69689.4099 E_angle  =    299093.7327 
E_dihed  =    142150.9836 E_impro  =      6017.6274 E_vdwl   =    -55194.3641 
E_coul   =   5678156.8104 E_long   =  -7403858.8906 Press    =       125.5977 
Volume   =   8326344.3507 
---------------- Step     7250 ----- CPU =   6657.7309 (sec) ----------------
TotEng   =   -683560.9762 KinEng   =    580442.8469 Temp     =       299.7675 
PotEng   =  -1264003.8231 E_bond   =     70117.1749 E_angle  =    299359.9384 
E_dihed  =    142225.1954 E_impro  =      6055.6523 E_vdwl   =    -55758.8537 
E_coul   =   5677816.2993 E_long   =  -7403819.2297 Press    =       -70.7949 
Volume   =   8327805.8681 
---------------- Step     7300 ----- CPU =   6703.4729 (sec) ----------------
TotEng   =   -683856.6129 KinEng   =    580395.8111 Temp     =       299.7432 
PotEng   =  -1264252.4240 E_bond   =     69747.4030 E_angle  =    299119.3124 
E_dihed  =    142349.3703 E_impro  =      6021.7146 E_vdwl   =    -54909.0814 
E_coul   =   5677266.7930 E_long   =  -7403847.9358 Press    =        55.1672 
Volume   =   8328466.0037 
---------------- Step     7350 ----- CPU =   6749.1923 (sec) ----------------
TotEng   =   -683070.6822 KinEng   =    581546.3595 Temp     =       300.3374 
PotEng   =  -1264617.0416 E_bond   =     70140.3179 E_angle  =    299108.3508 
E_dihed  =    142095.0647 E_impro  =      6094.4146 E_vdwl   =    -54890.9009 
E_coul   =   5676703.0948 E_long   =  -7403867.3834 Press    =        20.0238 
Volume   =   8329051.3002 
---------------- Step     7400 ----- CPU =   6795.8601 (sec) ----------------
TotEng   =   -682533.2907 KinEng   =    581334.1443 Temp     =       300.2278 
PotEng   =  -1263867.4350 E_bond   =     69904.4560 E_angle  =    299738.7627 
E_dihed  =    142138.0185 E_impro  =      6041.2923 E_vdwl   =    -55582.1031 
E_coul   =   5677725.0118 E_long   =  -7403832.8732 Press    =       -43.3823 
Volume   =   8328858.7546 
---------------- Step     7450 ----- CPU =   6841.6100 (sec) ----------------
TotEng   =   -682476.1331 KinEng   =    581441.2107 Temp     =       300.2831 
PotEng   =  -1263917.3437 E_bond   =     69674.3583 E_angle  =    299532.6791 
E_dihed  =    142217.8294 E_impro  =      6081.0019 E_vdwl   =    -55578.1378 
E_coul   =   5678036.1433 E_long   =  -7403881.2178 Press    =        19.7262 
Volume   =   8327734.0721 
---------------- Step     7500 ----- CPU =   6888.2528 (sec) ----------------
TotEng   =   -682791.1289 KinEng   =    580937.0482 Temp     =       300.0227 
PotEng   =  -1263728.1771 E_bond   =     69913.4951 E_angle  =    299804.4056 
E_dihed  =    142105.5852 E_impro  =      6133.2056 E_vdwl   =    -55666.5986 
E_coul   =   5677822.6510 E_long   =  -7403840.9211 Press    =       -36.0558 
Volume   =   8326693.8994 
---------------- Step     7550 ----- CPU =   6933.9338 (sec) ----------------
TotEng   =   -683438.6700 KinEng   =    579933.1389 Temp     =       299.5042 
PotEng   =  -1263371.8089 E_bond   =     69839.5803 E_angle  =    299927.3237 
E_dihed  =    141858.5991 E_impro  =      6140.5380 E_vdwl   =    -55298.1092 
E_coul   =   5678006.4544 E_long   =  -7403846.1951 Press    =        88.5454 
Volume   =   8326072.6141 
---------------- Step     7600 ----- CPU =   6980.5414 (sec) ----------------
TotEng   =   -683848.8336 KinEng   =    581201.2778 Temp     =       300.1592 
PotEng   =  -1265050.1114 E_bond   =     70428.0083 E_angle  =    298851.5218 
E_dihed  =    141987.1473 E_impro  =      6028.0580 E_vdwl   =    -55318.3046 
E_coul   =   5676822.0467 E_long   =  -7403848.5888 Press    =       -48.7676 
Volume   =   8326329.3334 
---------------- Step     7650 ----- CPU =   7026.2061 (sec) ----------------
TotEng   =   -683723.2624 KinEng   =    579984.9702 Temp     =       299.5310 
PotEng   =  -1263708.2327 E_bond   =     69803.7631 E_angle  =    299337.0994 
E_dihed  =    142417.0666 E_impro  =      6084.7214 E_vdwl   =    -55431.1926 
E_coul   =   5677984.7827 E_long   =  -7403904.4733 Press    =        40.5382 
Volume   =   8326848.6172 
---------------- Step     7700 ----- CPU =   7071.8658 (sec) ----------------
TotEng   =   -682558.5093 KinEng   =    580883.7934 Temp     =       299.9952 
PotEng   =  -1263442.3027 E_bond   =     70039.5418 E_angle  =    299970.6357 
E_dihed  =    142061.5465 E_impro  =      6089.4905 E_vdwl   =    -56541.9632 
E_coul   =   5678765.2153 E_long   =  -7403826.7695 Press    =       -45.9344 
Volume   =   8327334.3981 
---------------- Step     7750 ----- CPU =   7118.4738 (sec) ----------------
TotEng   =   -681720.5218 KinEng   =    581867.4904 Temp     =       300.5032 
PotEng   =  -1263588.0122 E_bond   =     70190.8434 E_angle  =    299426.6208 
E_dihed  =    142156.3328 E_impro  =      6052.6439 E_vdwl   =    -54183.3746 
E_coul   =   5676568.1883 E_long   =  -7403799.2669 Press    =       -15.2137 
Volume   =   8327253.1309 
---------------- Step     7800 ----- CPU =   7164.1325 (sec) ----------------
TotEng   =   -682243.1304 KinEng   =    580968.1696 Temp     =       300.0388 
PotEng   =  -1263211.3000 E_bond   =     70203.7775 E_angle  =    299951.4722 
E_dihed  =    142000.0590 E_impro  =      6078.0904 E_vdwl   =    -54625.6663 
E_coul   =   5677004.9741 E_long   =  -7403824.0068 Press    =       -34.1723 
Volume   =   8326805.4630 
---------------- Step     7850 ----- CPU =   7209.9222 (sec) ----------------
TotEng   =   -683986.8255 KinEng   =    581143.1997 Temp     =       300.1292 
PotEng   =  -1265130.0252 E_bond   =     70275.3847 E_angle  =    298776.7190 
E_dihed  =    141926.0759 E_impro  =      6072.9864 E_vdwl   =    -55082.9194 
E_coul   =   5676764.6982 E_long   =  -7403862.9701 Press    =        26.1544 
Volume   =   8325385.1018 
---------------- Step     7900 ----- CPU =   7256.4965 (sec) ----------------
TotEng   =   -685209.6426 KinEng   =    580820.9147 Temp     =       299.9627 
PotEng   =  -1266030.5573 E_bond   =     69946.2182 E_angle  =    298912.8785 
E_dihed  =    142079.7435 E_impro  =      6113.1233 E_vdwl   =    -55700.9864 
E_coul   =   5676460.8956 E_long   =  -7403842.4300 Press    =       -57.6082 
Volume   =   8324588.4182 
---------------- Step     7950 ----- CPU =   7302.1277 (sec) ----------------
TotEng   =   -684750.7391 KinEng   =    580733.3337 Temp     =       299.9175 
PotEng   =  -1265484.0727 E_bond   =     70089.3705 E_angle  =    298963.9878 
E_dihed  =    141921.5083 E_impro  =      6102.0391 E_vdwl   =    -54308.8268 
E_coul   =   5675547.0793 E_long   =  -7403799.2308 Press    =        51.1177 
Volume   =   8323658.6272 
---------------- Step     8000 ----- CPU =   7348.7973 (sec) ----------------
TotEng   =   -683657.1524 KinEng   =    581164.0313 Temp     =       300.1399 
PotEng   =  -1264821.1837 E_bond   =     70402.0491 E_angle  =    299301.0661 
E_dihed  =    142122.4077 E_impro  =      6091.5319 E_vdwl   =    -55659.7764 
E_coul   =   5676767.5695 E_long   =  -7403846.0315 Press    =       -51.0656 
Volume   =   8323299.7594 
---------------- Step     8050 ----- CPU =   7394.4915 (sec) ----------------
TotEng   =   -682319.2559 KinEng   =    581322.5766 Temp     =       300.2218 
PotEng   =  -1263641.8325 E_bond   =     70054.1374 E_angle  =    299544.1479 
E_dihed  =    142467.4540 E_impro  =      6113.4933 E_vdwl   =    -55217.8476 
E_coul   =   5677273.6588 E_long   =  -7403876.8763 Press    =        13.2931 
Volume   =   8322605.7387 
---------------- Step     8100 ----- CPU =   7441.1161 (sec) ----------------
TotEng   =   -682162.0716 KinEng   =    581514.6670 Temp     =       300.3210 
PotEng   =  -1263676.7387 E_bond   =     70143.6048 E_angle  =    299698.3802 
E_dihed  =    142158.4349 E_impro  =      5983.5181 E_vdwl   =    -54552.1383 
E_coul   =   5676688.0214 E_long   =  -7403796.5597 Press    =        78.0629 
Volume   =   8321357.3415 
---------------- Step     8150 ----- CPU =   7486.8456 (sec) ----------------
TotEng   =   -683730.6572 KinEng   =    580732.9778 Temp     =       299.9173 
PotEng   =  -1264463.6350 E_bond   =     70216.2646 E_angle  =    299453.8765 
E_dihed  =    141788.1350 E_impro  =      6110.6984 E_vdwl   =    -55110.9216 
E_coul   =   5676869.9805 E_long   =  -7403791.6685 Press    =        -7.5021 
Volume   =   8320769.1067 
---------------- Step     8200 ----- CPU =   7533.4211 (sec) ----------------
TotEng   =   -685098.5100 KinEng   =    580118.8400 Temp     =       299.6001 
PotEng   =  -1265217.3500 E_bond   =     70045.9472 E_angle  =    299770.9978 
E_dihed  =    142001.0327 E_impro  =      6041.2115 E_vdwl   =    -56159.0503 
E_coul   =   5676857.3931 E_long   =  -7403774.8818 Press    =       -14.9517 
Volume   =   8321034.0994 
---------------- Step     8250 ----- CPU =   7579.1681 (sec) ----------------
TotEng   =   -684831.3954 KinEng   =    579814.2994 Temp     =       299.4429 
PotEng   =  -1264645.6949 E_bond   =     69808.6531 E_angle  =    299616.2258 
E_dihed  =    142010.3578 E_impro  =      6013.6602 E_vdwl   =    -55385.4699 
E_coul   =   5677042.0923 E_long   =  -7403751.2142 Press    =       -44.8666 
Volume   =   8321245.1553 
---------------- Step     8300 ----- CPU =   7624.9007 (sec) ----------------
TotEng   =   -683132.8122 KinEng   =    580833.0545 Temp     =       299.9690 
PotEng   =  -1263965.8667 E_bond   =     69944.6446 E_angle  =    299646.1369 
E_dihed  =    141940.4290 E_impro  =      6124.6395 E_vdwl   =    -55202.4987 
E_coul   =   5677432.3534 E_long   =  -7403851.5713 Press    =        33.7949 
Volume   =   8321110.1024 
---------------- Step     8350 ----- CPU =   7670.5924 (sec) ----------------
TotEng   =   -682035.0867 KinEng   =    581727.2770 Temp     =       300.4308 
PotEng   =  -1263762.3637 E_bond   =     70746.8830 E_angle  =    299888.0655 
E_dihed  =    142022.8614 E_impro  =      6157.7733 E_vdwl   =    -55189.3829 
E_coul   =   5676380.0222 E_long   =  -7403768.5861 Press    =       -74.0747 
Volume   =   8321287.2579 
---------------- Step     8400 ----- CPU =   7717.1460 (sec) ----------------
TotEng   =   -683026.3916 KinEng   =    581822.0933 Temp     =       300.4798 
PotEng   =  -1264848.4850 E_bond   =     69810.3162 E_angle  =    298998.4396 
E_dihed  =    141958.7690 E_impro  =      6162.4807 E_vdwl   =    -55266.8447 
E_coul   =   5677364.9057 E_long   =  -7403876.5515 Press    =        70.2247 
Volume   =   8322123.9264 
---------------- Step     8450 ----- CPU =   7763.7885 (sec) ----------------
TotEng   =   -684806.0911 KinEng   =    580301.8436 Temp     =       299.6946 
PotEng   =  -1265107.9347 E_bond   =     69759.7509 E_angle  =    299423.9495 
E_dihed  =    142242.5965 E_impro  =      6087.5230 E_vdwl   =    -55695.1529 
E_coul   =   5676929.9905 E_long   =  -7403856.5923 Press    =       -88.8063 
Volume   =   8323271.1741 
---------------- Step     8500 ----- CPU =   7809.4173 (sec) ----------------
TotEng   =   -685924.5980 KinEng   =    579987.9713 Temp     =       299.5325 
PotEng   =  -1265912.5693 E_bond   =     69771.8321 E_angle  =    299501.7546 
E_dihed  =    141931.7333 E_impro  =      6049.5625 E_vdwl   =    -54759.3774 
E_coul   =   5675416.9457 E_long   =  -7403825.0200 Press    =        25.4581 
Volume   =   8322418.1576 
---------------- Step     8550 ----- CPU =   7855.9993 (sec) ----------------
TotEng   =   -685217.6202 KinEng   =    579956.0568 Temp     =       299.5161 
PotEng   =  -1265173.6770 E_bond   =     69756.8384 E_angle  =    299948.1695 
E_dihed  =    142104.4992 E_impro  =      6072.6837 E_vdwl   =    -54852.5033 
E_coul   =   5675671.3591 E_long   =  -7403874.7236 Press    =        29.4998 
Volume   =   8321386.9393 
---------------- Step     8600 ----- CPU =   7901.7867 (sec) ----------------
TotEng   =   -683209.3406 KinEng   =    580766.1906 Temp     =       299.9345 
PotEng   =  -1263975.5312 E_bond   =     70013.9663 E_angle  =    300053.4146 
E_dihed  =    142268.3792 E_impro  =      6133.9444 E_vdwl   =    -54603.3457 
E_coul   =   5675949.9434 E_long   =  -7403791.8335 Press    =        54.5762 
Volume   =   8320726.6423 
---------------- Step     8650 ----- CPU =   7947.5885 (sec) ----------------
TotEng   =   -682069.6903 KinEng   =    582644.6284 Temp     =       300.9046 
PotEng   =  -1264714.3187 E_bond   =     70277.2550 E_angle  =    299725.8980 
E_dihed  =    142075.4789 E_impro  =      6059.6801 E_vdwl   =    -54732.6507 
E_coul   =   5675695.9481 E_long   =  -7403815.9281 Press    =        30.2862 
Volume   =   8320190.6326 
---------------- Step     8700 ----- CPU =   7994.2359 (sec) ----------------
TotEng   =   -682920.2576 KinEng   =    581621.1575 Temp     =       300.3760 
PotEng   =  -1264541.4150 E_bond   =     69980.0772 E_angle  =    299462.1026 
E_dihed  =    142045.5613 E_impro  =      6051.5640 E_vdwl   =    -54821.0694 
E_coul   =   5676514.1148 E_long   =  -7403773.7655 Press    =        88.2648 
Volume   =   8320197.8542 
---------------- Step     8750 ----- CPU =   8039.9178 (sec) ----------------
TotEng   =   -684587.4978 KinEng   =    580725.8056 Temp     =       299.9136 
PotEng   =  -1265313.3034 E_bond   =     69969.7138 E_angle  =    299813.7739 
E_dihed  =    141885.3196 E_impro  =      6071.2955 E_vdwl   =    -55394.0115 
E_coul   =   5676177.1521 E_long   =  -7403836.5470 Press    =        35.2591 
Volume   =   8320686.4547 
---------------- Step     8800 ----- CPU =   8086.5240 (sec) ----------------
TotEng   =   -686144.7919 KinEng   =    579898.5219 Temp     =       299.4863 
PotEng   =  -1266043.3138 E_bond   =     70188.1697 E_angle  =    299162.9494 
E_dihed  =    141938.4548 E_impro  =      6102.9810 E_vdwl   =    -55585.2619 
E_coul   =   5676030.7796 E_long   =  -7403881.3865 Press    =         8.0869 
Volume   =   8320278.1545 
---------------- Step     8850 ----- CPU =   8132.2258 (sec) ----------------
TotEng   =   -686140.8742 KinEng   =    580272.9550 Temp     =       299.6797 
PotEng   =  -1266413.8293 E_bond   =     70008.1664 E_angle  =    299490.0231 
E_dihed  =    141969.4426 E_impro  =      6042.1354 E_vdwl   =    -55225.2412 
E_coul   =   5675136.1387 E_long   =  -7403834.4943 Press    =        14.6178 
Volume   =   8319446.5693 
---------------- Step     8900 ----- CPU =   8177.9004 (sec) ----------------
TotEng   =   -685151.2092 KinEng   =    581471.3573 Temp     =       300.2986 
PotEng   =  -1266622.5665 E_bond   =     69881.2227 E_angle  =    299739.5810 
E_dihed  =    141980.8561 E_impro  =      6067.2686 E_vdwl   =    -55855.4285 
E_coul   =   5675453.9433 E_long   =  -7403890.0098 Press    =       -42.6586 
Volume   =   8319420.7920 
---------------- Step     8950 ----- CPU =   8224.5295 (sec) ----------------
TotEng   =   -683601.5148 KinEng   =    581197.8445 Temp     =       300.1574 
PotEng   =  -1264799.3593 E_bond   =     69974.4725 E_angle  =    299810.4966 
E_dihed  =    142012.5736 E_impro  =      6132.3452 E_vdwl   =    -54873.5061 
E_coul   =   5675962.1070 E_long   =  -7403817.8482 Press    =       -18.2433 
Volume   =   8319462.8828 
---------------- Step     9000 ----- CPU =   8270.2213 (sec) ----------------
TotEng   =   -682532.1128 KinEng   =    582106.5249 Temp     =       300.6267 
PotEng   =  -1264638.6377 E_bond   =     70313.5882 E_angle  =    300255.3180 
E_dihed  =    141999.5709 E_impro  =      6098.2708 E_vdwl   =    -55816.8461 
E_coul   =   5676323.7325 E_long   =  -7403812.2720 Press    =        -5.7657 
Volume   =   8319582.3831 
---------------- Step     9050 ----- CPU =   8316.0070 (sec) ----------------
TotEng   =   -683653.8812 KinEng   =    581338.9394 Temp     =       300.2302 
PotEng   =  -1264992.8206 E_bond   =     69948.0995 E_angle  =    299622.6566 
E_dihed  =    142198.3316 E_impro  =      6135.8266 E_vdwl   =    -55514.6893 
E_coul   =   5676488.9682 E_long   =  -7403872.0138 Press    =        14.5661 
Volume   =   8319787.3569 
---------------- Step     9100 ----- CPU =   8362.6903 (sec) ----------------
TotEng   =   -685376.6875 KinEng   =    580816.2634 Temp     =       299.9603 
PotEng   =  -1266192.9510 E_bond   =     70047.7293 E_angle  =    298981.4719 
E_dihed  =    142016.8003 E_impro  =      6068.4944 E_vdwl   =    -56329.4402 
E_coul   =   5676885.2706 E_long   =  -7403863.2771 Press    =       -22.5795 
Volume   =   8319535.1390 
---------------- Step     9150 ----- CPU =   8408.3477 (sec) ----------------
TotEng   =   -685728.8945 KinEng   =    579666.2927 Temp     =       299.3664 
PotEng   =  -1265395.1872 E_bond   =     70300.0251 E_angle  =    299441.7476 
E_dihed  =    142111.7424 E_impro  =      6122.8066 E_vdwl   =    -56320.8034 
E_coul   =   5676774.1352 E_long   =  -7403824.8406 Press    =      -127.6254 
Volume   =   8318714.1638 
---------------- Step     9200 ----- CPU =   8454.0627 (sec) ----------------
TotEng   =   -684306.1615 KinEng   =    580633.9579 Temp     =       299.8662 
PotEng   =  -1264940.1194 E_bond   =     69964.7300 E_angle  =    299631.8649 
E_dihed  =    142469.1620 E_impro  =      6191.4330 E_vdwl   =    -55288.6613 
E_coul   =   5675923.7388 E_long   =  -7403832.3867 Press    =       -25.9087 
Volume   =   8317124.5620 
---------------- Step     9250 ----- CPU =   8500.6661 (sec) ----------------
TotEng   =   -683008.2126 KinEng   =    582079.9639 Temp     =       300.6129 
PotEng   =  -1265088.1765 E_bond   =     70350.4391 E_angle  =    299584.1906 
E_dihed  =    142122.7834 E_impro  =      6096.1265 E_vdwl   =    -54366.4251 
E_coul   =   5675018.1289 E_long   =  -7403893.4200 Press    =        22.7498 
Volume   =   8315045.6177 
---------------- Step     9300 ----- CPU =   8546.3748 (sec) ----------------
TotEng   =   -683340.2962 KinEng   =    581615.7998 Temp     =       300.3732 
PotEng   =  -1264956.0959 E_bond   =     69905.4466 E_angle  =    300097.7483 
E_dihed  =    142304.8612 E_impro  =      6078.5554 E_vdwl   =    -56190.4853 
E_coul   =   5676710.7736 E_long   =  -7403862.9956 Press    =        40.1408 
Volume   =   8313695.0908 
---------------- Step     9350 ----- CPU =   8592.0719 (sec) ----------------
TotEng   =   -684754.7306 KinEng   =    580448.7962 Temp     =       299.7705 
PotEng   =  -1265203.5268 E_bond   =     69983.6309 E_angle  =    299855.8473 
E_dihed  =    142011.9672 E_impro  =      5951.8372 E_vdwl   =    -55377.8220 
E_coul   =   5676191.5537 E_long   =  -7403820.5411 Press    =        77.1717 
Volume   =   8312937.8370 
---------------- Step     9400 ----- CPU =   8638.7089 (sec) ----------------
TotEng   =   -685861.7799 KinEng   =    580416.2054 Temp     =       299.7537 
PotEng   =  -1266277.9853 E_bond   =     70016.9970 E_angle  =    300188.6992 
E_dihed  =    141898.8550 E_impro  =      6002.9883 E_vdwl   =    -55717.4607 
E_coul   =   5675099.6015 E_long   =  -7403767.6656 Press    =        23.6996 
Volume   =   8313097.4842 
---------------- Step     9450 ----- CPU =   8684.4279 (sec) ----------------
TotEng   =   -685665.6875 KinEng   =    580272.5387 Temp     =       299.6795 
PotEng   =  -1265938.2262 E_bond   =     69991.2883 E_angle  =    299736.3894 
E_dihed  =    142097.2260 E_impro  =      6079.0976 E_vdwl   =    -54579.3601 
E_coul   =   5674513.3017 E_long   =  -7403776.1690 Press    =        71.0187 
Volume   =   8313720.4176 
---------------- Step     9500 ----- CPU =   8730.1722 (sec) ----------------
TotEng   =   -684755.8968 KinEng   =    581209.2970 Temp     =       300.1633 
PotEng   =  -1265965.1938 E_bond   =     69876.5491 E_angle  =    300190.9395 
E_dihed  =    141828.3655 E_impro  =      6017.0083 E_vdwl   =    -56486.3880 
E_coul   =   5676480.4594 E_long   =  -7403872.1275 Press    =        -1.5399 
Volume   =   8314874.2789 
---------------- Step     9550 ----- CPU =   8775.8654 (sec) ----------------
TotEng   =   -683817.2195 KinEng   =    581196.6692 Temp     =       300.1568 
PotEng   =  -1265013.8887 E_bond   =     69952.3890 E_angle  =    300085.7670 
E_dihed  =    142077.9589 E_impro  =      6090.4805 E_vdwl   =    -55995.3403 
E_coul   =   5676690.9961 E_long   =  -7403916.1397 Press    =       -75.1611 
Volume   =   8316526.1224 
---------------- Step     9600 ----- CPU =   8822.4961 (sec) ----------------
TotEng   =   -683577.6784 KinEng   =    581415.4363 Temp     =       300.2698 
PotEng   =  -1264993.1147 E_bond   =     69672.3340 E_angle  =    300301.9797 
E_dihed  =    142095.1115 E_impro  =      6000.3635 E_vdwl   =    -55017.9745 
E_coul   =   5675808.6868 E_long   =  -7403853.6157 Press    =       104.8357 
Volume   =   8317867.6299 
---------------- Step     9650 ----- CPU =   8868.2356 (sec) ----------------
TotEng   =   -683888.3841 KinEng   =    580775.9742 Temp     =       299.9395 
PotEng   =  -1264664.3583 E_bond   =     70159.0579 E_angle  =    299571.5689 
E_dihed  =    142200.5022 E_impro  =      5982.1371 E_vdwl   =    -54963.7871 
E_coul   =   5676197.7715 E_long   =  -7403811.6088 Press    =        -0.3264 
Volume   =   8320022.3989 
---------------- Step     9700 ----- CPU =   8914.7663 (sec) ----------------
TotEng   =   -684636.1545 KinEng   =    581272.2386 Temp     =       300.1958 
PotEng   =  -1265908.3931 E_bond   =     69961.7699 E_angle  =    299884.7016 
E_dihed  =    142068.1048 E_impro  =      6101.5419 E_vdwl   =    -54759.9845 
E_coul   =   5674725.5675 E_long   =  -7403890.0944 Press    =       -84.9487 
Volume   =   8321503.6504 
---------------- Step     9750 ----- CPU =   8960.4405 (sec) ----------------
TotEng   =   -685229.3744 KinEng   =    579065.8198 Temp     =       299.0563 
PotEng   =  -1264295.1942 E_bond   =     70180.1649 E_angle  =    299767.6071 
E_dihed  =    142410.4456 E_impro  =      6035.8820 E_vdwl   =    -54447.4990 
E_coul   =   5675647.4146 E_long   =  -7403889.2095 Press    =       -24.0993 
Volume   =   8322381.6296 
---------------- Step     9800 ----- CPU =   9007.0550 (sec) ----------------
TotEng   =   -684616.2016 KinEng   =    580938.1157 Temp     =       300.0232 
PotEng   =  -1265554.3173 E_bond   =     69861.1078 E_angle  =    299891.9927 
E_dihed  =    142178.0248 E_impro  =      6070.6149 E_vdwl   =    -55139.5922 
E_coul   =   5675441.6502 E_long   =  -7403858.1156 Press    =        32.2740 
Volume   =   8322883.9399 
---------------- Step     9850 ----- CPU =   9052.7429 (sec) ----------------
TotEng   =   -683639.7261 KinEng   =    581491.8654 Temp     =       300.3092 
PotEng   =  -1265131.5916 E_bond   =     69989.1323 E_angle  =    300357.9858 
E_dihed  =    141914.1929 E_impro  =      6039.6672 E_vdwl   =    -54657.1835 
E_coul   =   5675073.4131 E_long   =  -7403848.7994 Press    =       -25.7424 
Volume   =   8322807.1835 
---------------- Step     9900 ----- CPU =   9098.4338 (sec) ----------------
TotEng   =   -683377.6073 KinEng   =    581364.0695 Temp     =       300.2432 
PotEng   =  -1264741.6769 E_bond   =     70173.2000 E_angle  =    299896.1401 
E_dihed  =    142141.4478 E_impro  =      6106.2426 E_vdwl   =    -54949.5496 
E_coul   =   5675826.0718 E_long   =  -7403935.2295 Press    =       -17.7483 
Volume   =   8322553.1845 
---------------- Step     9950 ----- CPU =   9145.0018 (sec) ----------------
TotEng   =   -683820.3952 KinEng   =    580468.9546 Temp     =       299.7809 
PotEng   =  -1264289.3499 E_bond   =     70405.1640 E_angle  =    300093.4122 
E_dihed  =    142370.0016 E_impro  =      6059.9571 E_vdwl   =    -54670.9121 
E_coul   =   5675291.6427 E_long   =  -7403838.6153 Press    =        57.7106 
Volume   =   8322231.8977 
---------------- Step    10000 ----- CPU =   9190.6931 (sec) ----------------
TotEng   =   -684352.9323 KinEng   =    580806.7903 Temp     =       299.9554 
PotEng   =  -1265159.7226 E_bond   =     69873.9062 E_angle  =    300297.8109 
E_dihed  =    142484.8368 E_impro  =      6040.2343 E_vdwl   =    -54793.5384 
E_coul   =   5674850.8921 E_long   =  -7403913.8646 Press    =        46.9345 
Volume   =   8322399.2921 
Loop time of 9190.69 on 2 procs for 10000 steps with 864000 atoms

Performance: 0.188 ns/day, 127.649 hours/ns, 1.088 timesteps/s
99.9% CPU use with 2 MPI tasks x 1 OpenMP threads

MPI task timing breakdown:
Section |  min time  |  avg time  |  max time  |%varavg| %total
---------------------------------------------------------------
Pair    | 5903.5     | 5908.1     | 5912.8     |   6.1 | 64.28
Bond    | 358.63     | 362.69     | 366.74     |  21.3 |  3.95
Kspace  | 898.35     | 907.06     | 915.77     |  28.9 |  9.87
Neigh   | 853.09     | 853.13     | 853.16     |   0.1 |  9.28
Comm    | 308.35     | 308.52     | 308.68     |   0.9 |  3.36
Output  | 0.13972    | 0.14173    | 0.14373    |   0.5 |  0.00
Modify  | 829.13     | 829.46     | 829.79     |   1.2 |  9.02
Other   |            | 21.58      |            |       |  0.23

Nlocal:         432000 ave      432404 max      431596 min
Histogram: 1 0 0 0 0 0 0 0 0 1
Nghost:         230494 ave      230638 max      230349 min
Histogram: 1 0 0 0 0 0 0 0 0 1
Neighs:     1.6233e+08 ave 1.62703e+08 max 1.61957e+08 min
Histogram: 1 0 0 0 0 0 0 0 0 1

Total # of neighbors = 3.2465958e+08
Ave neighs/atom = 375.7634
Ave special neighs/atom = 7.431875
Neighbor list builds = 1277
Dangerous builds = 0
Total wall time: 2:33:14
Intel(R) VTune(TM) Profiler 2022.2.0 collection completed successfully. Use the "aps --report /home/ubuntu/lammps/bench/aps_result_20220704" command to generate textual and HTML reports for the profiling session.
