LAMMPS (7 Jan 2022)
  using 1 OpenMP thread(s) per MPI task
New timer settings: style=full  mode=nosync  timeout=off
Reading data file ...
  orthogonal box = (-27.5 -38.5 -36.3646) to (27.5 38.5 36.3615)
  2 by 2 by 2 MPI processor grid
  reading atoms ...
  32000 atoms
  reading velocities ...
  32000 velocities
  scanning bonds ...
  4 = max bonds/atom
  scanning angles ...
  8 = max angles/atom
  scanning dihedrals ...
  18 = max dihedrals/atom
  scanning impropers ...
  2 = max impropers/atom
  reading bonds ...
  27723 bonds
  reading angles ...
  40467 angles
  reading dihedrals ...
  56829 dihedrals
  reading impropers ...
  1034 impropers
Finding 1-2 1-3 1-4 neighbors ...
  special bond factors lj:    0        0        0       
  special bond factors coul:  0        0        0       
     4 = max # of 1-2 neighbors
    12 = max # of 1-3 neighbors
    24 = max # of 1-4 neighbors
    26 = max # of special neighbors
  special bonds CPU = 0.004 seconds
  read_data CPU = 0.166 seconds
Replicating atoms ...
  orthogonal box = (-27.5 -38.5 -36.3646) to (137.5 192.5 181.8137)
  2 by 2 by 2 MPI processor grid
  864000 atoms
  748521 bonds
  1092609 angles
  1534383 dihedrals
  27918 impropers
Finding 1-2 1-3 1-4 neighbors ...
  special bond factors lj:    0        0        0       
  special bond factors coul:  0        0        0       
     4 = max # of 1-2 neighbors
    12 = max # of 1-3 neighbors
    24 = max # of 1-4 neighbors
    26 = max # of special neighbors
  special bonds CPU = 0.078 seconds
  replicate CPU = 0.157 seconds
Finding SHAKE clusters ...
   43659 = # of size 2 clusters
   98091 = # of size 3 clusters
   20169 = # of size 4 clusters
  114291 = # of frozen angles
  find clusters CPU = 0.032 seconds
PPPM initialization ...
  using 12-bit tables for long-range coulomb (../kspace.cpp:340)
  G vector (1/distance) = 0.25235202
  grid = 72 90 90
  stencil order = 7
  estimated absolute RMS force accuracy = 0.029803316
  estimated relative force accuracy = 8.9751802e-05
  using single precision MKL FFT
  3d grid and FFT values/proc = 116272 77760
----------------------------------------------------------
Using INTEL Package without Coprocessor.
Compiler: Intel Classic C++ 20.21.5 / Intel(R) C++ g++ 9.3 mode
SIMD compiler directives: Enabled
Precision: mixed
----------------------------------------------------------
  generated 2278 of 2278 mixed pair_coeff terms from arithmetic mixing rule
Neighbor list info ...
  update every 1 steps, delay 5 steps, check yes
  max neighbors/atom: 2000, page size: 100000
  master list distance cutoff = 12
  ghost atom cutoff = 12
  binsize = 6, bins = 28 39 37
  1 neighbor lists, perpetual/occasional/extra = 1 0 0
  (1) pair lj/charmm/coul/long/intel, perpetual
      attributes: half, newton on, intel
      pair build: half/bin/newton/intel
      stencil: half/bin/3d
      bin: intel
Setting up Verlet run ...
  Unit style    : real
  Current step  : 0
  Time step     : 2
Per MPI rank memory allocation (min/avg/max) = 1167 | 1171 | 1175 Mbytes
---------------- Step        0 ----- CPU =      0.0000 (sec) ----------------
TotEng   =   -684670.9760 KinEng   =    579010.4447 Temp     =       299.0277 
PotEng   =  -1263681.4207 E_bond   =     68525.6859 E_angle  =    294877.1223 
E_dihed  =    140718.2350 E_impro  =      5764.8965 E_vdwl   =    -62312.3838 
E_coul   =   5692538.4978 E_long   =  -7403793.4743 Press    =      -148.6879 
Volume   =   8315865.9045 
---------------- Step       50 ----- CPU =     11.3727 (sec) ----------------
TotEng   =   -683945.5723 KinEng   =    580526.1612 Temp     =       299.8105 
PotEng   =  -1264471.7335 E_bond   =     66737.4335 E_angle  =    292591.4590 
E_dihed  =    141470.6490 E_impro  =      6132.4364 E_vdwl   =    -53811.2274 
E_coul   =   5686392.7204 E_long   =  -7403985.2044 Press    =       238.9220 
Volume   =   8316862.5496 
---------------- Step      100 ----- CPU =     22.9633 (sec) ----------------
TotEng   =   -682828.1491 KinEng   =    582915.2394 Temp     =       301.0443 
PotEng   =  -1265743.3885 E_bond   =     69335.4081 E_angle  =    291121.1936 
E_dihed  =    140366.2363 E_impro  =      5852.7910 E_vdwl   =    -51271.2373 
E_coul   =   5682697.0413 E_long   =  -7403844.8216 Press    =        14.5835 
Volume   =   8319656.0551 
Loop time of 22.9633 on 8 procs for 100 steps with 864000 atoms

Performance: 0.753 ns/day, 31.894 hours/ns, 4.355 timesteps/s
99.4% CPU use with 8 MPI tasks x 1 OpenMP threads

MPI task timing breakdown:
Section |  min time  |  avg time  |  max time  |%varavg|  %CPU | %total
-----------------------------------------------------------------------
Pair    | 14.666     | 14.823     | 15.087     |   3.2 | 100.0 | 64.55
Bond    | 0.87228    | 0.89147    | 0.91154    |   1.3 | 100.0 |  3.88
Kspace  | 2.2225     | 2.4902     | 2.6559     |   7.7 |  96.3 | 10.84
Neigh   | 1.7969     | 1.7979     | 1.7989     |   0.0 | 100.0 |  7.83
Comm    | 0.82972    | 0.84522    | 0.8517     |   1.0 |  96.6 |  3.68
Output  | 0.00040346 | 0.00042238 | 0.0004408  |   0.0 | 100.0 |  0.00
Modify  | 2.0033     | 2.0188     | 2.0531     |   1.4 |  99.6 |  8.79
Other   |            | 0.09601    |            |       |       |  0.42

Nlocal:         108000 ave      108538 max      107588 min
Histogram: 1 2 0 1 2 0 0 0 1 1
Nghost:        96691.8 ave       97130 max       96237 min
Histogram: 1 0 2 1 1 0 0 1 0 2
Neighs:    4.05948e+07 ave 4.09095e+07 max 4.03631e+07 min
Histogram: 1 2 0 2 1 0 0 0 0 2

Total # of neighbors = 3.2475853e+08
Ave neighs/atom = 375.87792
Ave special neighs/atom = 7.431875
Neighbor list builds = 11
Dangerous builds = 0
Total wall time: 0:00:23
Intel(R) VTune(TM) Profiler 2022.2.0 collection completed successfully. Use the "aps --report /home/ubuntu/lammps/bench/aps_result_20220421" command to generate textual and HTML reports for the profiling session.
