LAMMPS (7 Jan 2022)
  using 1 OpenMP thread(s) per MPI task
New timer settings: style=full  mode=nosync  timeout=off
Reading data file ...
  orthogonal box = (-27.5 -38.5 -36.3646) to (27.5 38.5 36.3615)
  1 by 1 by 1 MPI processor grid
  reading atoms ...
  32000 atoms
  reading velocities ...
  32000 velocities
  scanning bonds ...
  4 = max bonds/atom
  scanning angles ...
  8 = max angles/atom
  scanning dihedrals ...
  18 = max dihedrals/atom
  scanning impropers ...
  2 = max impropers/atom
  reading bonds ...
  27723 bonds
  reading angles ...
  40467 angles
  reading dihedrals ...
  56829 dihedrals
  reading impropers ...
  1034 impropers
Finding 1-2 1-3 1-4 neighbors ...
  special bond factors lj:    0        0        0       
  special bond factors coul:  0        0        0       
     4 = max # of 1-2 neighbors
    12 = max # of 1-3 neighbors
    24 = max # of 1-4 neighbors
    26 = max # of special neighbors
  special bonds CPU = 0.017 seconds
  read_data CPU = 0.186 seconds
Replicating atoms ...
  orthogonal box = (-27.5 -38.5 -36.3646) to (137.5 192.5 181.8137)
  1 by 1 by 1 MPI processor grid
  864000 atoms
  748521 bonds
  1092609 angles
  1534383 dihedrals
  27918 impropers
Finding 1-2 1-3 1-4 neighbors ...
  special bond factors lj:    0        0        0       
  special bond factors coul:  0        0        0       
     4 = max # of 1-2 neighbors
    12 = max # of 1-3 neighbors
    24 = max # of 1-4 neighbors
    26 = max # of special neighbors
  special bonds CPU = 0.450 seconds
  replicate CPU = 0.721 seconds
Finding SHAKE clusters ...
   43659 = # of size 2 clusters
   98091 = # of size 3 clusters
   20169 = # of size 4 clusters
  114291 = # of frozen angles
  find clusters CPU = 0.197 seconds
PPPM initialization ...
  using 12-bit tables for long-range coulomb (../kspace.cpp:340)
  G vector (1/distance) = 0.25235202
  grid = 72 90 90
  stencil order = 7
  estimated absolute RMS force accuracy = 0.029803316
  estimated relative force accuracy = 8.9751802e-05
  using single precision MKL FFT
  3d grid and FFT values/proc = 743311 583200
----------------------------------------------------------
Using INTEL Package without Coprocessor.
Compiler: Intel Classic C++ 20.21.5 / Intel(R) C++ g++ 9.3 mode
SIMD compiler directives: Enabled
Precision: mixed
----------------------------------------------------------
  generated 2278 of 2278 mixed pair_coeff terms from arithmetic mixing rule
Neighbor list info ...
  update every 1 steps, delay 5 steps, check yes
  max neighbors/atom: 2000, page size: 100000
  master list distance cutoff = 12
  ghost atom cutoff = 12
  binsize = 6, bins = 28 39 37
  1 neighbor lists, perpetual/occasional/extra = 1 0 0
  (1) pair lj/charmm/coul/long/intel, perpetual
      attributes: half, newton on, intel
      pair build: half/bin/newton/intel
      stencil: half/bin/3d
      bin: intel
Setting up Verlet run ...
  Unit style    : real
  Current step  : 0
  Time step     : 2
Per MPI rank memory allocation (min/avg/max) = 8775 | 8775 | 8775 Mbytes
---------------- Step        0 ----- CPU =      0.0000 (sec) ----------------
TotEng   =   -684670.9760 KinEng   =    579010.4447 Temp     =       299.0277 
PotEng   =  -1263681.4207 E_bond   =     68525.6859 E_angle  =    294877.1223 
E_dihed  =    140718.2350 E_impro  =      5764.8965 E_vdwl   =    -62312.3838 
E_coul   =   5692538.4977 E_long   =  -7403793.4743 Press    =      -148.6879 
Volume   =   8315865.9045 
---------------- Step       50 ----- CPU =     87.3639 (sec) ----------------
TotEng   =   -683945.7627 KinEng   =    580526.0519 Temp     =       299.8104 
PotEng   =  -1264471.8146 E_bond   =     66737.4920 E_angle  =    292591.3659 
E_dihed  =    141470.6237 E_impro  =      6132.4116 E_vdwl   =    -53811.2406 
E_coul   =   5686392.7315 E_long   =  -7403985.1988 Press    =       238.9186 
Volume   =   8316862.5499 
---------------- Step      100 ----- CPU =    176.7796 (sec) ----------------
TotEng   =   -682828.0475 KinEng   =    582915.3178 Temp     =       301.0444 
PotEng   =  -1265743.3653 E_bond   =     69335.3407 E_angle  =    291121.2410 
E_dihed  =    140366.2564 E_impro  =      5852.6812 E_vdwl   =    -51271.2472 
E_coul   =   5682697.0665 E_long   =  -7403844.7039 Press    =        14.5775 
Volume   =   8319656.0526 
Loop time of 176.78 on 1 procs for 100 steps with 864000 atoms

Performance: 0.098 ns/day, 245.527 hours/ns, 0.566 timesteps/s
100.0% CPU use with 1 MPI tasks x 1 OpenMP threads

MPI task timing breakdown:
Section |  min time  |  avg time  |  max time  |%varavg|  %CPU | %total
-----------------------------------------------------------------------
Pair    | 118.07     | 118.07     | 118.07     |   0.0 | 100.0 | 66.79
Bond    | 7.3148     | 7.3148     | 7.3148     |   0.0 |  99.9 |  4.14
Kspace  | 18.083     | 18.083     | 18.083     |   0.0 | 100.0 | 10.23
Neigh   | 14.012     | 14.012     | 14.012     |   0.0 | 100.0 |  7.93
Comm    | 5.6203     | 5.6203     | 5.6203     |   0.0 |  99.9 |  3.18
Output  | 0.0028513  | 0.0028513  | 0.0028513  |   0.0 | 100.0 |  0.00
Modify  | 13.222     | 13.222     | 13.222     |   0.0 | 100.0 |  7.48
Other   |            | 0.4556     |            |       |       |  0.26

Nlocal:         864000 ave      864000 max      864000 min
Histogram: 1 0 0 0 0 0 0 0 0 0
Nghost:         347611 ave      347611 max      347611 min
Histogram: 1 0 0 0 0 0 0 0 0 0
Neighs:    3.24759e+08 ave 3.24759e+08 max 3.24759e+08 min
Histogram: 1 0 0 0 0 0 0 0 0 0

Total # of neighbors = 3.2475855e+08
Ave neighs/atom = 375.87795
Ave special neighs/atom = 7.431875
Neighbor list builds = 11
Dangerous builds = 0
Total wall time: 0:03:02
Intel(R) VTune(TM) Profiler 2022.2.0 collection completed successfully. Use the "aps --report /home/ubuntu/lammps/bench/aps_result_20220421" command to generate textual and HTML reports for the profiling session.
