LAMMPS (7 Jan 2022)
  using 1 OpenMP thread(s) per MPI task
New timer settings: style=full  mode=nosync  timeout=off
Reading data file ...
  orthogonal box = (-16.796 -16.796 -16.796) to (16.796 16.796 16.796)
  2 by 4 by 4 MPI processor grid
  reading atoms ...
  32000 atoms
  reading velocities ...
  32000 velocities
  scanning bonds ...
  1 = max bonds/atom
  reading bonds ...
  31680 bonds
Finding 1-2 1-3 1-4 neighbors ...
  special bond factors lj:    0        1        1       
  special bond factors coul:  0        1        1       
     2 = max # of 1-2 neighbors
     2 = max # of special neighbors
  special bonds CPU = 0.004 seconds
  read_data CPU = 0.177 seconds
Replicating atoms ...
  orthogonal box = (-16.796 -16.796 -16.796) to (50.388 50.388 50.388)
  2 by 4 by 4 MPI processor grid
  256000 atoms
  253440 bonds
Finding 1-2 1-3 1-4 neighbors ...
  special bond factors lj:    0        1        1       
  special bond factors coul:  0        1        1       
     2 = max # of 1-2 neighbors
     2 = max # of special neighbors
  special bonds CPU = 0.007 seconds
  replicate CPU = 0.021 seconds

CITE-CITE-CITE-CITE-CITE-CITE-CITE-CITE-CITE-CITE-CITE-CITE-CITE

Your simulation uses code contributions which should be cited:
- GPU package (short-range, long-range and three-body potentials):
The log file lists these citations in BibTeX format.

CITE-CITE-CITE-CITE-CITE-CITE-CITE-CITE-CITE-CITE-CITE-CITE-CITE


--------------------------------------------------------------------------
- Using acceleration for lj/cut:
-  with 8 proc(s) per device.
-  Horizontal vector operations: ENABLED
-  Shared memory system: No
--------------------------------------------------------------------------
Device 0: Tesla V100-SXM2-16GB, 80 CUs, 13/16 GB, 1.5 GHZ (Mixed Precision)
Device 1: Tesla V100-SXM2-16GB, 80 CUs, 1.5 GHZ (Mixed Precision)
Device 2: Tesla V100-SXM2-16GB, 80 CUs, 1.5 GHZ (Mixed Precision)
Device 3: Tesla V100-SXM2-16GB, 80 CUs, 1.5 GHZ (Mixed Precision)
--------------------------------------------------------------------------

Initializing Device and compiling on process 0...Done.
Initializing Devices 0-3 on core 0...Done.
Initializing Devices 0-3 on core 1...Done.
Initializing Devices 0-3 on core 2...Done.
Initializing Devices 0-3 on core 3...Done.
Initializing Devices 0-3 on core 4...Done.
Initializing Devices 0-3 on core 5...Done.
Initializing Devices 0-3 on core 6...Done.
Initializing Devices 0-3 on core 7...Done.

  generated 0 of 0 mixed pair_coeff terms from geometric mixing rule
Setting up Verlet run ...
  Unit style    : lj
  Current step  : 0
  Time step     : 0.012
WARNING: Communication cutoff 1.52 is shorter than a bond length based estimate of 1.855. This may lead to errors. (../comm.cpp:723)
Per MPI rank memory allocation (min/avg/max) = 4.682 | 4.682 | 4.683 Mbytes
Step Temp E_pair E_mol TotEng Press 
       0   0.97027119   0.44484089    20.494523    22.394765    4.6721843 
     100   0.97348665   0.44199381    20.501529    22.403747    4.6869238 
Loop time of 0.337087 on 32 procs for 100 steps with 256000 atoms

Performance: 307576.372 tau/day, 296.659 timesteps/s
96.3% CPU use with 32 MPI tasks x 1 OpenMP threads

MPI task timing breakdown:
Section |  min time  |  avg time  |  max time  |%varavg|  %CPU | %total
-----------------------------------------------------------------------
Pair    | 0.10144    | 0.12553    | 0.14842    |   3.3 |  96.7 | 37.24
Bond    | 0.024182   | 0.024779   | 0.025711   |   0.2 |  96.9 |  7.35
Neigh   | 0.009427   | 0.010081   | 0.010642   |   0.3 |  96.4 |  2.99
Comm    | 0.048874   | 0.056339   | 0.063983   |   1.8 |  94.0 | 16.71
Output  | 0.00010032 | 0.00049436 | 0.00091436 |   0.0 |  93.7 |  0.15
Modify  | 0.057911   | 0.060473   | 0.065508   |   0.9 |  97.1 | 17.94
Other   |            | 0.05939    |            |       |       | 17.62

Nlocal:           8000 ave        8040 max        7968 min
Histogram: 3 2 3 4 5 10 1 2 1 1
Nghost:        4173.66 ave        4224 max        4136 min
Histogram: 2 5 5 7 1 2 4 4 0 2
Neighs:              0 ave           0 max           0 min
Histogram: 32 0 0 0 0 0 0 0 0 0

Total # of neighbors = 0
Ave neighs/atom = 0
Ave special neighs/atom = 1.98
Neighbor list builds = 25
Dangerous builds = 0


---------------------------------------------------------------------
      Device Time Info (average): 
---------------------------------------------------------------------
Data Transfer:   0.0306 s.
Neighbor copy:   0.0376 s.
Neighbor build:  0.0243 s.
Force calc:      0.0317 s.
Device Overhead: 0.0823 s.
Average split:   1.0000.
Lanes / atom:    4.
Vector width:    32.
Max Mem / Proc:  2.69 MB.
CPU Neighbor:    0.0273 s.
CPU Cast/Pack:   0.0098 s.
CPU Driver_Time: 0.0023 s.
CPU Idle_Time:   0.0458 s.
---------------------------------------------------------------------

Total wall time: 0:00:19
Intel(R) VTune(TM) Profiler 2022.2.0 collection completed successfully. Use the "aps --report /home/ubuntu/lammps/bench/aps_result_20220420" command to generate textual and HTML reports for the profiling session.
