LAMMPS (7 Jan 2022)
  using 1 OpenMP thread(s) per MPI task
New timer settings: style=full  mode=sync  timeout=off
Reading data file ...
  orthogonal box = (-16.796 -16.796 -16.796) to (16.796 16.796 16.796)
  3 by 4 by 4 MPI processor grid
  reading atoms ...
  32000 atoms
  reading velocities ...
  32000 velocities
  scanning bonds ...
  1 = max bonds/atom
  reading bonds ...
  31680 bonds
Finding 1-2 1-3 1-4 neighbors ...
  special bond factors lj:    0        1        1       
  special bond factors coul:  0        1        1       
     2 = max # of 1-2 neighbors
     2 = max # of special neighbors
  special bonds CPU = 0.006 seconds
  read_data CPU = 0.162 seconds
Replicating atoms ...
  orthogonal box = (-16.796 -16.796 -16.796) to (83.98 83.98 83.98)
  3 by 4 by 4 MPI processor grid
  864000 atoms
  855360 bonds
Finding 1-2 1-3 1-4 neighbors ...
  special bond factors lj:    0        1        1       
  special bond factors coul:  0        1        1       
     2 = max # of 1-2 neighbors
     2 = max # of special neighbors
  special bonds CPU = 0.014 seconds
  replicate CPU = 0.045 seconds

CITE-CITE-CITE-CITE-CITE-CITE-CITE-CITE-CITE-CITE-CITE-CITE-CITE

Your simulation uses code contributions which should be cited:
- GPU package (short-range, long-range and three-body potentials):
The log file lists these citations in BibTeX format.

CITE-CITE-CITE-CITE-CITE-CITE-CITE-CITE-CITE-CITE-CITE-CITE-CITE


--------------------------------------------------------------------------
- Using acceleration for lj/cut:
-  with 8 proc(s) per device.
-  Horizontal vector operations: ENABLED
-  Shared memory system: No
--------------------------------------------------------------------------
Device 0: Tesla V100-SXM2-16GB, 80 CUs, 13/16 GB, 1.5 GHZ (Mixed Precision)
Device 1: Tesla V100-SXM2-16GB, 80 CUs, 1.5 GHZ (Mixed Precision)
Device 2: Tesla V100-SXM2-16GB, 80 CUs, 1.5 GHZ (Mixed Precision)
Device 3: Tesla V100-SXM2-16GB, 80 CUs, 1.5 GHZ (Mixed Precision)
Device 4: Tesla V100-SXM2-16GB, 80 CUs, 1.5 GHZ (Mixed Precision)
Device 5: Tesla V100-SXM2-16GB, 80 CUs, 1.5 GHZ (Mixed Precision)
--------------------------------------------------------------------------

Initializing Device and compiling on process 0...Done.
Initializing Devices 0-5 on core 0...Done.
Initializing Devices 0-5 on core 1...Done.
Initializing Devices 0-5 on core 2...Done.
Initializing Devices 0-5 on core 3...Done.
Initializing Devices 0-5 on core 4...Done.
Initializing Devices 0-5 on core 5...Done.
Initializing Devices 0-5 on core 6...Done.
Initializing Devices 0-5 on core 7...Done.

  generated 0 of 0 mixed pair_coeff terms from geometric mixing rule
Setting up Verlet run ...
  Unit style    : lj
  Current step  : 0
  Time step     : 0.012
WARNING: Communication cutoff 1.52 is shorter than a bond length based estimate of 1.855. This may lead to errors. (../comm.cpp:723)
Per MPI rank memory allocation (min/avg/max) = 9.368 | 9.371 | 9.374 Mbytes
Step Temp E_pair E_mol TotEng Press 
       0   0.97026852   0.44484094    20.494523    22.394765    4.6721849 
     100   0.97329951   0.44043136    20.503492    22.403871     4.672574 
Loop time of 0.641002 on 48 procs for 100 steps with 864000 atoms

Performance: 161746.876 tau/day, 156.006 timesteps/s
93.5% CPU use with 48 MPI tasks x 1 OpenMP threads

MPI task timing breakdown:
Section |  min time  |  avg time  |  max time  |%varavg|  %CPU | %total
-----------------------------------------------------------------------
Pair    | 0.10831    | 0.14924    | 0.19568    |   7.4 |  97.0 | 23.28
Bond    | 0.062907   | 0.065034   | 0.071273   |   0.7 |  93.2 | 10.15
Neigh   | 0.033783   | 0.033828   | 0.033867   |   0.0 |  96.9 |  5.28
Comm    | 0.06438    | 0.065517   | 0.066872   |   0.2 |  94.7 | 10.22
Output  | 0.00012988 | 0.00013259 | 0.00015858 |   0.0 | 100.0 |  0.02
Modify  | 0.12467    | 0.12825    | 0.13253    |   0.7 |  92.3 | 20.01
Sync    | 0.10819    | 0.15607    | 0.19731    |   7.0 |  90.3 | 24.35
Other   |            | 0.199      |            |       |       | 31.05

Nlocal:          18000 ave       18053 max       17936 min
Histogram: 1 1 5 5 7 9 10 6 3 1
Nghost:        6661.83 ave        6746 max        6610 min
Histogram: 4 9 5 12 4 5 5 3 0 1
Neighs:              0 ave           0 max           0 min
Histogram: 48 0 0 0 0 0 0 0 0 0

Total # of neighbors = 0
Ave neighs/atom = 0
Ave special neighs/atom = 1.98
Neighbor list builds = 26
Dangerous builds = 0


---------------------------------------------------------------------
      Device Time Info (average): 
---------------------------------------------------------------------
Data Transfer:   0.0604 s.
Neighbor copy:   0.0367 s.
Neighbor build:  0.0281 s.
Force calc:      0.0412 s.
Device Overhead: 0.0862 s.
Average split:   1.0000.
Lanes / atom:    4.
Vector width:    32.
Max Mem / Proc:  5.96 MB.
CPU Neighbor:    0.0471 s.
CPU Cast/Pack:   0.0298 s.
CPU Driver_Time: 0.0021 s.
CPU Idle_Time:   0.0307 s.
---------------------------------------------------------------------

Total wall time: 0:00:28
Intel(R) VTune(TM) Profiler 2022.1.0 collection completed successfully. Use the "aps --report /home/ubuntu/lammps/bench/aps_result_20220414" command to generate textual and HTML reports for the profiling session.
