LAMMPS (7 Jan 2022)
  using 1 OpenMP thread(s) per MPI task
Reading data file ...
  orthogonal box = (-16.796 -16.796 -16.796) to (16.796 16.796 16.796)
  2 by 1 by 3 MPI processor grid
  reading atoms ...
  32000 atoms
  reading velocities ...
  32000 velocities
  scanning bonds ...
  1 = max bonds/atom
  reading bonds ...
  31680 bonds
Finding 1-2 1-3 1-4 neighbors ...
  special bond factors lj:    0        1        1       
  special bond factors coul:  0        1        1       
     2 = max # of 1-2 neighbors
     2 = max # of special neighbors
  special bonds CPU = 0.002 seconds
  read_data CPU = 0.186 seconds

CITE-CITE-CITE-CITE-CITE-CITE-CITE-CITE-CITE-CITE-CITE-CITE-CITE

Your simulation uses code contributions which should be cited:
- GPU package (short-range, long-range and three-body potentials):
The log file lists these citations in BibTeX format.

CITE-CITE-CITE-CITE-CITE-CITE-CITE-CITE-CITE-CITE-CITE-CITE-CITE


--------------------------------------------------------------------------
- Using acceleration for lj/cut:
-  with 6 proc(s) per device.
-  Horizontal vector operations: ENABLED
-  Shared memory system: No
--------------------------------------------------------------------------
Device 0: Tesla V100-SXM2-16GB, 80 CUs, 14/16 GB, 1.5 GHZ (Double Precision)
--------------------------------------------------------------------------

Initializing Device and compiling on process 0...Done.
Initializing Device 0 on core 0...Done.
Initializing Device 0 on core 1...Done.
Initializing Device 0 on core 2...Done.
Initializing Device 0 on core 3...Done.
Initializing Device 0 on core 4...Done.
Initializing Device 0 on core 5...Done.

  generated 0 of 0 mixed pair_coeff terms from geometric mixing rule
Setting up Verlet run ...
  Unit style    : lj
  Current step  : 0
  Time step     : 0.012
WARNING: Communication cutoff 1.52 is shorter than a bond length based estimate of 1.855. This may lead to errors. (../comm.cpp:723)
Per MPI rank memory allocation (min/avg/max) = 4.294 | 4.296 | 4.299 Mbytes
Step Temp E_pair E_mol TotEng Press 
       0   0.97029772   0.44484087    20.494523    22.394765    4.6721833 
     100   0.97705729   0.43880564     20.49994    22.404286    4.7304732 
Loop time of 0.234024 on 6 procs for 100 steps with 32000 atoms

Performance: 443030.955 tau/day, 427.306 timesteps/s
98.8% CPU use with 6 MPI tasks x 1 OpenMP threads

MPI task timing breakdown:
Section |  min time  |  avg time  |  max time  |%varavg| %total
---------------------------------------------------------------
Pair    | 0.090168   | 0.10513    | 0.11511    |   2.8 | 44.92
Bond    | 0.016623   | 0.016841   | 0.017079   |   0.1 |  7.20
Neigh   | 0.0036384  | 0.003685   | 0.0037293  |   0.1 |  1.57
Comm    | 0.021904   | 0.025451   | 0.029413   |   1.5 | 10.88
Output  | 7.4723e-05 | 0.0004534  | 0.00077821 |   0.0 |  0.19
Modify  | 0.04397    | 0.044551   | 0.045113   |   0.2 | 19.04
Other   |            | 0.03792    |            |       | 16.20

Nlocal:        5333.33 ave        5354 max        5305 min
Histogram: 1 0 0 0 1 2 0 0 0 2
Nghost:        3389.17 ave        3416 max        3360 min
Histogram: 1 0 1 0 1 1 0 0 0 2
Neighs:              0 ave           0 max           0 min
Histogram: 6 0 0 0 0 0 0 0 0 0

Total # of neighbors = 0
Ave neighs/atom = 0
Ave special neighs/atom = 1.98
Neighbor list builds = 25
Dangerous builds = 0


---------------------------------------------------------------------
      Device Time Info (average): 
---------------------------------------------------------------------
Data Transfer:   0.0159 s.
Neighbor copy:   0.0406 s.
Neighbor build:  0.0216 s.
Force calc:      0.0236 s.
Device Overhead: 0.0702 s.
Average split:   1.0000.
Lanes / atom:    4.
Vector width:    32.
Max Mem / Proc:  1.87 MB.
CPU Neighbor:    0.0107 s.
CPU Cast/Pack:   0.0099 s.
CPU Driver_Time: 0.0038 s.
CPU Idle_Time:   0.0342 s.
---------------------------------------------------------------------

Total wall time: 0:00:07
Intel(R) VTune(TM) Profiler 2022.2.0 collection completed successfully. Use the "aps --report /home/ubuntu/lammps/bench/aps_result_20220610" command to generate textual and HTML reports for the profiling session.
