LAMMPS (7 Jan 2022)
  using 1 OpenMP thread(s) per MPI task
Reading data file ...
  orthogonal box = (-16.796 -16.796 -16.796) to (16.796 16.796 16.796)
  2 by 1 by 3 MPI processor grid
  reading atoms ...
  32000 atoms
  reading velocities ...
  32000 velocities
  scanning bonds ...
  1 = max bonds/atom
  reading bonds ...
  31680 bonds
Finding 1-2 1-3 1-4 neighbors ...
  special bond factors lj:    0        1        1       
  special bond factors coul:  0        1        1       
     2 = max # of 1-2 neighbors
     2 = max # of special neighbors
  special bonds CPU = 0.002 seconds
  read_data CPU = 0.158 seconds
New timer settings: style=full  mode=sync  timeout=off

CITE-CITE-CITE-CITE-CITE-CITE-CITE-CITE-CITE-CITE-CITE-CITE-CITE

Your simulation uses code contributions which should be cited:
- GPU package (short-range, long-range and three-body potentials):
The log file lists these citations in BibTeX format.

CITE-CITE-CITE-CITE-CITE-CITE-CITE-CITE-CITE-CITE-CITE-CITE-CITE


--------------------------------------------------------------------------
- Using acceleration for lj/cut:
-  with 6 proc(s) per device.
-  Horizontal vector operations: ENABLED
-  Shared memory system: No
--------------------------------------------------------------------------
Device 0: Tesla V100-SXM2-16GB, 80 CUs, 14/16 GB, 1.5 GHZ (Mixed Precision)
--------------------------------------------------------------------------

Initializing Device and compiling on process 0...Done.
Initializing Device 0 on core 0...Done.
Initializing Device 0 on core 1...Done.
Initializing Device 0 on core 2...Done.
Initializing Device 0 on core 3...Done.
Initializing Device 0 on core 4...Done.
Initializing Device 0 on core 5...Done.

  generated 0 of 0 mixed pair_coeff terms from geometric mixing rule
Setting up Verlet run ...
  Unit style    : lj
  Current step  : 0
  Time step     : 0.012
WARNING: Communication cutoff 1.52 is shorter than a bond length based estimate of 1.855. This may lead to errors. (../comm.cpp:723)
Per MPI rank memory allocation (min/avg/max) = 4.148 | 4.149 | 4.152 Mbytes
Step Temp E_pair E_mol TotEng Press 
       0   0.97029772   0.44484087    20.494523    22.394765    4.6721833 
     100   0.97916256    0.4382509    20.501036    22.407985    4.7116822 
Loop time of 0.216828 on 6 procs for 100 steps with 32000 atoms

Performance: 478167.013 tau/day, 461.195 timesteps/s
99.5% CPU use with 6 MPI tasks x 1 OpenMP threads

MPI task timing breakdown:
Section |  min time  |  avg time  |  max time  |%varavg|  %CPU | %total
-----------------------------------------------------------------------
Pair    | 0.077964   | 0.09175    | 0.10616    |   2.9 |  99.7 | 42.31
Bond    | 0.016696   | 0.016808   | 0.016898   |   0.0 |  98.9 |  7.75
Neigh   | 0.0036314  | 0.0036408  | 0.0036486  |   0.0 |  99.2 |  1.68
Comm    | 0.016023   | 0.016147   | 0.016324   |   0.1 |  98.6 |  7.45
Output  | 6.3517e-05 | 6.5819e-05 | 7.5654e-05 |   0.0 | 100.0 |  0.03
Modify  | 0.038608   | 0.039075   | 0.039651   |   0.2 |  99.6 | 18.02
Sync    | 0.028915   | 0.042827   | 0.056189   |   4.1 |  99.7 | 19.75
Other   |            | 0.04934    |            |       |       | 22.76

Nlocal:        5333.33 ave        5362 max        5305 min
Histogram: 1 0 0 2 1 0 0 1 0 1
Nghost:        3392.67 ave        3419 max        3367 min
Histogram: 1 1 1 0 0 0 1 0 1 1
Neighs:              0 ave           0 max           0 min
Histogram: 6 0 0 0 0 0 0 0 0 0

Total # of neighbors = 0
Ave neighs/atom = 0
Ave special neighs/atom = 1.98
Neighbor list builds = 25
Dangerous builds = 0


---------------------------------------------------------------------
      Device Time Info (average): 
---------------------------------------------------------------------
Data Transfer:   0.0096 s.
Neighbor copy:   0.0401 s.
Neighbor build:  0.0198 s.
Force calc:      0.0233 s.
Device Overhead: 0.0684 s.
Average split:   1.0000.
Lanes / atom:    4.
Vector width:    32.
Max Mem / Proc:  1.72 MB.
CPU Neighbor:    0.0096 s.
CPU Cast/Pack:   0.0069 s.
CPU Driver_Time: 0.0021 s.
CPU Idle_Time:   0.0287 s.
---------------------------------------------------------------------

Total wall time: 0:00:03
Intel(R) VTune(TM) Profiler 2022.1.0 collection completed successfully. Use the "aps --report /home/ubuntu/lammps/bench/aps_result_20220414" command to generate textual and HTML reports for the profiling session.
