LAMMPS (7 Jan 2022)
  using 1 OpenMP thread(s) per MPI task
Reading data file ...
  orthogonal box = (-16.796 -16.796 -16.796) to (16.796 16.796 16.796)
  3 by 4 by 4 MPI processor grid
  reading atoms ...
  32000 atoms
  reading velocities ...
  32000 velocities
  scanning bonds ...
  1 = max bonds/atom
  reading bonds ...
  31680 bonds
Finding 1-2 1-3 1-4 neighbors ...
  special bond factors lj:    0        1        1       
  special bond factors coul:  0        1        1       
     2 = max # of 1-2 neighbors
     2 = max # of special neighbors
  special bonds CPU = 0.006 seconds
  read_data CPU = 0.206 seconds
Replicating atoms ...
  orthogonal box = (-16.796 -16.796 -16.796) to (83.98 83.98 83.98)
  3 by 4 by 4 MPI processor grid
  864000 atoms
  855360 bonds
Finding 1-2 1-3 1-4 neighbors ...
  special bond factors lj:    0        1        1       
  special bond factors coul:  0        1        1       
     2 = max # of 1-2 neighbors
     2 = max # of special neighbors
  special bonds CPU = 0.013 seconds
  replicate CPU = 0.043 seconds

CITE-CITE-CITE-CITE-CITE-CITE-CITE-CITE-CITE-CITE-CITE-CITE-CITE

Your simulation uses code contributions which should be cited:
- GPU package (short-range, long-range and three-body potentials):
The log file lists these citations in BibTeX format.

CITE-CITE-CITE-CITE-CITE-CITE-CITE-CITE-CITE-CITE-CITE-CITE-CITE


--------------------------------------------------------------------------
- Using acceleration for lj/cut:
-  with 6 proc(s) per device.
-  Horizontal vector operations: ENABLED
-  Shared memory system: No
--------------------------------------------------------------------------
Device 0: Tesla V100-SXM2-16GB, 80 CUs, 14/16 GB, 1.5 GHZ (Mixed Precision)
Device 1: Tesla V100-SXM2-16GB, 80 CUs, 1.5 GHZ (Mixed Precision)
Device 2: Tesla V100-SXM2-16GB, 80 CUs, 1.5 GHZ (Mixed Precision)
Device 3: Tesla V100-SXM2-16GB, 80 CUs, 1.5 GHZ (Mixed Precision)
Device 4: Tesla V100-SXM2-16GB, 80 CUs, 1.5 GHZ (Mixed Precision)
Device 5: Tesla V100-SXM2-16GB, 80 CUs, 1.5 GHZ (Mixed Precision)
Device 6: Tesla V100-SXM2-16GB, 80 CUs, 1.5 GHZ (Mixed Precision)
Device 7: Tesla V100-SXM2-16GB, 80 CUs, 1.5 GHZ (Mixed Precision)
--------------------------------------------------------------------------

Initializing Device and compiling on process 0...Done.
Initializing Devices 0-7 on core 0...Done.
Initializing Devices 0-7 on core 1...Done.
Initializing Devices 0-7 on core 2...Done.
Initializing Devices 0-7 on core 3...Done.
Initializing Devices 0-7 on core 4...Done.
Initializing Devices 0-7 on core 5...Done.

  generated 0 of 0 mixed pair_coeff terms from geometric mixing rule
Setting up Verlet run ...
  Unit style    : lj
  Current step  : 0
  Time step     : 0.012
WARNING: Communication cutoff 1.52 is shorter than a bond length based estimate of 1.855. This may lead to errors. (../comm.cpp:723)
Per MPI rank memory allocation (min/avg/max) = 9.368 | 9.371 | 9.374 Mbytes
Step Temp E_pair E_mol TotEng Press 
       0   0.97026852   0.44484094    20.494523    22.394765    4.6721849 
     100   0.97329951   0.44043136    20.503492    22.403871     4.672574 
Loop time of 0.631496 on 48 procs for 100 steps with 864000 atoms

Performance: 164181.442 tau/day, 158.354 timesteps/s
98.5% CPU use with 48 MPI tasks x 1 OpenMP threads

MPI task timing breakdown:
Section |  min time  |  avg time  |  max time  |%varavg| %total
---------------------------------------------------------------
Pair    | 0.12688    | 0.13969    | 0.15512    |   2.1 | 22.12
Bond    | 0.075395   | 0.077822   | 0.080436   |   0.4 | 12.32
Neigh   | 0.038184   | 0.03999    | 0.041126   |   0.3 |  6.33
Comm    | 0.11188    | 0.12502    | 0.13727    |   1.6 | 19.80
Output  | 0.00014451 | 0.00031621 | 0.00062899 |   0.0 |  0.05
Modify  | 0.13635    | 0.15589    | 0.17171    |   1.5 | 24.69
Other   |            | 0.09277    |            |       | 14.69

Nlocal:          18000 ave       18053 max       17936 min
Histogram: 1 1 5 5 7 9 10 6 3 1
Nghost:        6661.83 ave        6746 max        6610 min
Histogram: 4 9 5 12 4 5 5 3 0 1
Neighs:              0 ave           0 max           0 min
Histogram: 48 0 0 0 0 0 0 0 0 0

Total # of neighbors = 0
Ave neighs/atom = 0
Ave special neighs/atom = 1.98
Neighbor list builds = 26
Dangerous builds = 0


---------------------------------------------------------------------
      Device Time Info (average): 
---------------------------------------------------------------------
Data Transfer:   0.0622 s.
Neighbor copy:   0.0334 s.
Neighbor build:  0.0211 s.
Force calc:      0.0374 s.
Device Overhead: 0.0716 s.
Average split:   1.0000.
Lanes / atom:    4.
Vector width:    32.
Max Mem / Proc:  5.96 MB.
CPU Neighbor:    0.0636 s.
CPU Cast/Pack:   0.0296 s.
CPU Driver_Time: 0.0050 s.
CPU Idle_Time:   0.0212 s.
---------------------------------------------------------------------

Total wall time: 0:01:08
Intel(R) VTune(TM) Profiler 2022.2.0 collection completed successfully. Use the "aps --report /home/ubuntu/lammps/bench/aps_result_20220530" command to generate textual and HTML reports for the profiling session.
