LAMMPS (7 Jan 2022)
  using 1 OpenMP thread(s) per MPI task
New timer settings: style=full  mode=sync  timeout=off
Reading data file ...
  orthogonal box = (-16.796 -16.796 -16.796) to (16.796 16.796 16.796)
  3 by 4 by 4 MPI processor grid
  reading atoms ...
  32000 atoms
  reading velocities ...
  32000 velocities
  scanning bonds ...
  1 = max bonds/atom
  reading bonds ...
  31680 bonds
Finding 1-2 1-3 1-4 neighbors ...
  special bond factors lj:    0        1        1       
  special bond factors coul:  0        1        1       
     2 = max # of 1-2 neighbors
     2 = max # of special neighbors
  special bonds CPU = 0.007 seconds
  read_data CPU = 0.175 seconds
Replicating atoms ...
  orthogonal box = (-16.796 -16.796 -16.796) to (117.572 117.572 117.572)
  3 by 4 by 4 MPI processor grid
  2048000 atoms
  2027520 bonds
Finding 1-2 1-3 1-4 neighbors ...
  special bond factors lj:    0        1        1       
  special bond factors coul:  0        1        1       
     2 = max # of 1-2 neighbors
     2 = max # of special neighbors
  special bonds CPU = 0.030 seconds
  replicate CPU = 0.091 seconds

CITE-CITE-CITE-CITE-CITE-CITE-CITE-CITE-CITE-CITE-CITE-CITE-CITE

Your simulation uses code contributions which should be cited:
- GPU package (short-range, long-range and three-body potentials):
The log file lists these citations in BibTeX format.

CITE-CITE-CITE-CITE-CITE-CITE-CITE-CITE-CITE-CITE-CITE-CITE-CITE


--------------------------------------------------------------------------
- Using acceleration for lj/cut:
-  with 8 proc(s) per device.
-  Horizontal vector operations: ENABLED
-  Shared memory system: No
--------------------------------------------------------------------------
Device 0: Tesla V100-SXM2-16GB, 80 CUs, 13/16 GB, 1.5 GHZ (Mixed Precision)
Device 1: Tesla V100-SXM2-16GB, 80 CUs, 1.5 GHZ (Mixed Precision)
Device 2: Tesla V100-SXM2-16GB, 80 CUs, 1.5 GHZ (Mixed Precision)
Device 3: Tesla V100-SXM2-16GB, 80 CUs, 1.5 GHZ (Mixed Precision)
Device 4: Tesla V100-SXM2-16GB, 80 CUs, 1.5 GHZ (Mixed Precision)
Device 5: Tesla V100-SXM2-16GB, 80 CUs, 1.5 GHZ (Mixed Precision)
--------------------------------------------------------------------------

Initializing Device and compiling on process 0...Done.
Initializing Devices 0-5 on core 0...Done.
Initializing Devices 0-5 on core 1...Done.
Initializing Devices 0-5 on core 2...Done.
Initializing Devices 0-5 on core 3...Done.
Initializing Devices 0-5 on core 4...Done.
Initializing Devices 0-5 on core 5...Done.
Initializing Devices 0-5 on core 6...Done.
Initializing Devices 0-5 on core 7...Done.

  generated 0 of 0 mixed pair_coeff terms from geometric mixing rule
Setting up Verlet run ...
  Unit style    : lj
  Current step  : 0
  Time step     : 0.012
WARNING: Communication cutoff 1.52 is shorter than a bond length based estimate of 1.855. This may lead to errors. (../comm.cpp:723)
Per MPI rank memory allocation (min/avg/max) = 18.37 | 18.37 | 18.38 Mbytes
Step Temp E_pair E_mol TotEng Press 
       0   0.97026787   0.44484102    20.494523    22.394765    4.6721851 
     100   0.97392966    0.4421072    20.501128    22.404129    4.6871657 
Loop time of 1.65365 on 48 procs for 100 steps with 2048000 atoms

Performance: 62697.600 tau/day, 60.472 timesteps/s
95.7% CPU use with 48 MPI tasks x 1 OpenMP threads

MPI task timing breakdown:
Section |  min time  |  avg time  |  max time  |%varavg|  %CPU | %total
-----------------------------------------------------------------------
Pair    | 0.2682     | 0.33976    | 0.42899    |   9.3 |  97.7 | 20.55
Bond    | 0.20187    | 0.20777    | 0.21303    |   0.7 |  97.3 | 12.56
Neigh   | 0.12537    | 0.12599    | 0.12614    |   0.0 |  98.5 |  7.62
Comm    | 0.18952    | 0.19173    | 0.19329    |   0.2 |  96.3 | 11.59
Output  | 0.00041191 | 0.00041672 | 0.00045862 |   0.0 | 100.0 |  0.03
Modify  | 0.3597     | 0.37327    | 0.38766    |   1.3 |  95.9 | 22.57
Sync    | 0.17357    | 0.26727    | 0.34937    |  10.6 |  90.3 | 16.16
Other   |            | 0.4147     |            |       |       | 25.08

Nlocal:        42666.7 ave       42750 max       42595 min
Histogram: 1 4 8 8 7 6 6 5 2 1
Nghost:        11511.3 ave       11658 max       11431 min
Histogram: 6 3 12 7 10 6 3 0 0 1
Neighs:              0 ave           0 max           0 min
Histogram: 48 0 0 0 0 0 0 0 0 0

Total # of neighbors = 0
Ave neighs/atom = 0
Ave special neighs/atom = 1.98
Neighbor list builds = 28
Dangerous builds = 0


---------------------------------------------------------------------
      Device Time Info (average): 
---------------------------------------------------------------------
Data Transfer:   0.1833 s.
Neighbor copy:   0.0894 s.
Neighbor build:  0.0416 s.
Force calc:      0.0467 s.
Device Overhead: 0.0869 s.
Average split:   1.0000.
Lanes / atom:    4.
Vector width:    32.
Max Mem / Proc:  13.99 MB.
CPU Neighbor:    0.0745 s.
CPU Cast/Pack:   0.1150 s.
CPU Driver_Time: 0.0021 s.
CPU Idle_Time:   0.0379 s.
---------------------------------------------------------------------

Total wall time: 0:00:30
Intel(R) VTune(TM) Profiler 2022.1.0 collection completed successfully. Use the "aps --report /home/ubuntu/lammps/bench/aps_result_20220414" command to generate textual and HTML reports for the profiling session.
