LAMMPS (7 Jan 2022)
  using 1 OpenMP thread(s) per MPI task
Reading data file ...
  orthogonal box = (-16.796 -16.796 -16.796) to (16.796 16.796 16.796)
  3 by 4 by 4 MPI processor grid
  reading atoms ...
  32000 atoms
  reading velocities ...
  32000 velocities
  scanning bonds ...
  1 = max bonds/atom
  reading bonds ...
  31680 bonds
Finding 1-2 1-3 1-4 neighbors ...
  special bond factors lj:    0        1        1       
  special bond factors coul:  0        1        1       
     2 = max # of 1-2 neighbors
     2 = max # of special neighbors
  special bonds CPU = 0.007 seconds
  read_data CPU = 0.197 seconds
Replicating atoms ...
  orthogonal box = (-16.796 -16.796 -16.796) to (50.388 50.388 50.388)
  3 by 4 by 4 MPI processor grid
  256000 atoms
  253440 bonds
Finding 1-2 1-3 1-4 neighbors ...
  special bond factors lj:    0        1        1       
  special bond factors coul:  0        1        1       
     2 = max # of 1-2 neighbors
     2 = max # of special neighbors
  special bonds CPU = 0.008 seconds
  replicate CPU = 0.024 seconds

CITE-CITE-CITE-CITE-CITE-CITE-CITE-CITE-CITE-CITE-CITE-CITE-CITE

Your simulation uses code contributions which should be cited:
- GPU package (short-range, long-range and three-body potentials):
The log file lists these citations in BibTeX format.

CITE-CITE-CITE-CITE-CITE-CITE-CITE-CITE-CITE-CITE-CITE-CITE-CITE


--------------------------------------------------------------------------
- Using acceleration for lj/cut:
-  with 8 proc(s) per device.
-  Horizontal vector operations: ENABLED
-  Shared memory system: No
--------------------------------------------------------------------------
Device 0: Tesla V100-SXM2-16GB, 80 CUs, 13/16 GB, 1.5 GHZ (Double Precision)
Device 1: Tesla V100-SXM2-16GB, 80 CUs, 1.5 GHZ (Double Precision)
Device 2: Tesla V100-SXM2-16GB, 80 CUs, 1.5 GHZ (Double Precision)
Device 3: Tesla V100-SXM2-16GB, 80 CUs, 1.5 GHZ (Double Precision)
Device 4: Tesla V100-SXM2-16GB, 80 CUs, 1.5 GHZ (Double Precision)
Device 5: Tesla V100-SXM2-16GB, 80 CUs, 1.5 GHZ (Double Precision)
--------------------------------------------------------------------------

Initializing Device and compiling on process 0...Done.
Initializing Devices 0-5 on core 0...Done.
Initializing Devices 0-5 on core 1...Done.
Initializing Devices 0-5 on core 2...Done.
Initializing Devices 0-5 on core 3...Done.
Initializing Devices 0-5 on core 4...Done.
Initializing Devices 0-5 on core 5...Done.
Initializing Devices 0-5 on core 6...Done.
Initializing Devices 0-5 on core 7...Done.

  generated 0 of 0 mixed pair_coeff terms from geometric mixing rule
Setting up Verlet run ...
  Unit style    : lj
  Current step  : 0
  Time step     : 0.012
WARNING: Communication cutoff 1.52 is shorter than a bond length based estimate of 1.855. This may lead to errors. (../comm.cpp:723)
Per MPI rank memory allocation (min/avg/max) = 4.602 | 4.608 | 4.62 Mbytes
Step Temp E_pair E_mol TotEng Press 
       0   0.97027119   0.44484087    20.494523    22.394765    4.6721833 
     100   0.97291349   0.44322044    20.501422    22.404006    4.6943275 
Loop time of 0.372542 on 48 procs for 100 steps with 256000 atoms

Performance: 278303.865 tau/day, 268.426 timesteps/s
100.6% CPU use with 48 MPI tasks x 1 OpenMP threads

MPI task timing breakdown:
Section |  min time  |  avg time  |  max time  |%varavg| %total
---------------------------------------------------------------
Pair    | 0.12223    | 0.14969    | 0.18703    |   3.8 | 40.18
Bond    | 0.018528   | 0.019554   | 0.021178   |   0.3 |  5.25
Neigh   | 0.0097387  | 0.010445   | 0.011061   |   0.3 |  2.80
Comm    | 0.058631   | 0.067689   | 0.077131   |   1.7 | 18.17
Output  | 0.00010038 | 0.00060868 | 0.0010345  |   0.0 |  0.16
Modify  | 0.046179   | 0.049844   | 0.057034   |   0.8 | 13.38
Other   |            | 0.07471    |            |       | 20.06

Nlocal:        5333.33 ave        5376 max        5287 min
Histogram: 1 0 4 9 8 9 7 7 2 1
Nghost:        3113.92 ave        3156 max        3076 min
Histogram: 2 2 10 8 6 3 8 4 1 4
Neighs:              0 ave           0 max           0 min
Histogram: 48 0 0 0 0 0 0 0 0 0

Total # of neighbors = 0
Ave neighs/atom = 0
Ave special neighs/atom = 1.98
Neighbor list builds = 25
Dangerous builds = 0


---------------------------------------------------------------------
      Device Time Info (average): 
---------------------------------------------------------------------
Data Transfer:   0.0372 s.
Neighbor copy:   0.0518 s.
Neighbor build:  0.0280 s.
Force calc:      0.0328 s.
Device Overhead: 0.0944 s.
Average split:   1.0000.
Lanes / atom:    4.
Vector width:    32.
Max Mem / Proc:  1.94 MB.
CPU Neighbor:    0.0479 s.
CPU Cast/Pack:   0.0107 s.
CPU Driver_Time: 0.0043 s.
CPU Idle_Time:   0.0522 s.
---------------------------------------------------------------------

Total wall time: 0:01:03
Intel(R) VTune(TM) Profiler 2022.2.0 collection completed successfully. Use the "aps --report /home/ubuntu/lammps/bench/aps_result_20220610" command to generate textual and HTML reports for the profiling session.
