LAMMPS (7 Jan 2022)
  using 1 OpenMP thread(s) per MPI task
New timer settings: style=full  mode=sync  timeout=off
Reading data file ...
  orthogonal box = (-16.796 -16.796 -16.796) to (16.796 16.796 16.796)
  3 by 4 by 3 MPI processor grid
  reading atoms ...
  32000 atoms
  reading velocities ...
  32000 velocities
  scanning bonds ...
  1 = max bonds/atom
  reading bonds ...
  31680 bonds
Finding 1-2 1-3 1-4 neighbors ...
  special bond factors lj:    0        1        1       
  special bond factors coul:  0        1        1       
     2 = max # of 1-2 neighbors
     2 = max # of special neighbors
  special bonds CPU = 0.004 seconds
  read_data CPU = 0.153 seconds
Replicating atoms ...
  orthogonal box = (-16.796 -16.796 -16.796) to (83.98 83.98 83.98)
  4 by 3 by 3 MPI processor grid
  864000 atoms
  855360 bonds
Finding 1-2 1-3 1-4 neighbors ...
  special bond factors lj:    0        1        1       
  special bond factors coul:  0        1        1       
     2 = max # of 1-2 neighbors
     2 = max # of special neighbors
  special bonds CPU = 0.019 seconds
  replicate CPU = 0.049 seconds

CITE-CITE-CITE-CITE-CITE-CITE-CITE-CITE-CITE-CITE-CITE-CITE-CITE

Your simulation uses code contributions which should be cited:
- GPU package (short-range, long-range and three-body potentials):
The log file lists these citations in BibTeX format.

CITE-CITE-CITE-CITE-CITE-CITE-CITE-CITE-CITE-CITE-CITE-CITE-CITE


--------------------------------------------------------------------------
- Using acceleration for lj/cut:
-  with 18 proc(s) per device.
-  Horizontal vector operations: ENABLED
-  Shared memory system: No
--------------------------------------------------------------------------
Device 0: Tesla V100-SXM2-16GB, 80 CUs, 10/16 GB, 1.5 GHZ (Mixed Precision)
Device 1: Tesla V100-SXM2-16GB, 80 CUs, 1.5 GHZ (Mixed Precision)
--------------------------------------------------------------------------

Initializing Device and compiling on process 0...Done.
Initializing Devices 0-1 on core 0...Done.
Initializing Devices 0-1 on core 1...Done.
Initializing Devices 0-1 on core 2...Done.
Initializing Devices 0-1 on core 3...Done.
Initializing Devices 0-1 on core 4...Done.
Initializing Devices 0-1 on core 5...Done.
Initializing Devices 0-1 on core 6...Done.
Initializing Devices 0-1 on core 7...Done.
Initializing Devices 0-1 on core 8...Done.
Initializing Devices 0-1 on core 9...Done.
Initializing Devices 0-1 on core 10...Done.
Initializing Devices 0-1 on core 11...Done.
Initializing Devices 0-1 on core 12...Done.
Initializing Devices 0-1 on core 13...Done.
Initializing Devices 0-1 on core 14...Done.
Initializing Devices 0-1 on core 15...Done.
Initializing Devices 0-1 on core 16...Done.
Initializing Devices 0-1 on core 17...Done.

  generated 0 of 0 mixed pair_coeff terms from geometric mixing rule
Setting up Verlet run ...
  Unit style    : lj
  Current step  : 0
  Time step     : 0.012
WARNING: Communication cutoff 1.52 is shorter than a bond length based estimate of 1.855. This may lead to errors. (../comm.cpp:723)
Per MPI rank memory allocation (min/avg/max) = 9.783 | 9.784 | 9.786 Mbytes
Step Temp E_pair E_mol TotEng Press 
       0   0.97026852   0.44484094    20.494523    22.394765    4.6721849 
     100   0.97370454   0.44180108    20.502422    22.404778    4.6848717 
Loop time of 0.942461 on 36 procs for 100 steps with 864000 atoms

Performance: 110009.915 tau/day, 106.105 timesteps/s
99.4% CPU use with 36 MPI tasks x 1 OpenMP threads

MPI task timing breakdown:
Section |  min time  |  avg time  |  max time  |%varavg|  %CPU | %total
-----------------------------------------------------------------------
Pair    | 0.26991    | 0.28697    | 0.30378    |   1.6 |  99.5 | 30.45
Bond    | 0.082879   | 0.085905   | 0.089006   |   0.5 |  99.4 |  9.11
Neigh   | 0.045843   | 0.045859   | 0.045877   |   0.0 |  99.6 |  4.87
Comm    | 0.079553   | 0.080972   | 0.082545   |   0.3 |  99.2 |  8.59
Output  | 0.00016575 | 0.00017851 | 0.00020404 |   0.0 | 100.0 |  0.02
Modify  | 0.16934    | 0.17103    | 0.17951    |   0.5 |  99.2 | 18.15
Sync    | 0.20133    | 0.21884    | 0.23733    |   2.0 |  99.2 | 23.22
Other   |            | 0.2715     |            |       |       | 28.81

Nlocal:          24000 ave       24070 max       23936 min
Histogram: 2 2 4 5 7 6 3 5 0 2
Nghost:        7970.89 ave        8030 max        7917 min
Histogram: 2 3 4 6 6 2 7 2 1 3
Neighs:              0 ave           0 max           0 min
Histogram: 36 0 0 0 0 0 0 0 0 0

Total # of neighbors = 0
Ave neighs/atom = 0
Ave special neighs/atom = 1.98
Neighbor list builds = 25
Dangerous builds = 0


---------------------------------------------------------------------
      Device Time Info (average): 
---------------------------------------------------------------------
Data Transfer:   0.0927 s.
Neighbor copy:   0.0661 s.
Neighbor build:  0.0750 s.
Force calc:      0.0877 s.
Device Overhead: 0.1909 s.
Average split:   1.0000.
Lanes / atom:    4.
Vector width:    32.
Max Mem / Proc:  7.91 MB.
CPU Neighbor:    0.0591 s.
CPU Cast/Pack:   0.0311 s.
CPU Driver_Time: 0.0028 s.
CPU Idle_Time:   0.1181 s.
---------------------------------------------------------------------

Total wall time: 0:00:22
Intel(R) VTune(TM) Profiler 2022.1.0 collection completed successfully. Use the "aps --report /home/ubuntu/lammps/bench/aps_result_20220414" command to generate textual and HTML reports for the profiling session.
