LAMMPS (7 Jan 2022)
  using 1 OpenMP thread(s) per MPI task
New timer settings: style=full  mode=nosync  timeout=off
Reading data file ...
  orthogonal box = (-16.796 -16.796 -16.796) to (16.796 16.796 16.796)
  2 by 2 by 3 MPI processor grid
  reading atoms ...
  32000 atoms
  reading velocities ...
  32000 velocities
  scanning bonds ...
  1 = max bonds/atom
  reading bonds ...
  31680 bonds
Finding 1-2 1-3 1-4 neighbors ...
  special bond factors lj:    0        1        1       
  special bond factors coul:  0        1        1       
     2 = max # of 1-2 neighbors
     2 = max # of special neighbors
  special bonds CPU = 0.003 seconds
  read_data CPU = 0.162 seconds

CITE-CITE-CITE-CITE-CITE-CITE-CITE-CITE-CITE-CITE-CITE-CITE-CITE

Your simulation uses code contributions which should be cited:
- GPU package (short-range, long-range and three-body potentials):
The log file lists these citations in BibTeX format.

CITE-CITE-CITE-CITE-CITE-CITE-CITE-CITE-CITE-CITE-CITE-CITE-CITE


--------------------------------------------------------------------------
- Using acceleration for lj/cut:
-  with 6 proc(s) per device.
-  Horizontal vector operations: ENABLED
-  Shared memory system: No
--------------------------------------------------------------------------
Device 0: Tesla V100-SXM2-16GB, 80 CUs, 14/16 GB, 1.5 GHZ (Mixed Precision)
Device 1: Tesla V100-SXM2-16GB, 80 CUs, 1.5 GHZ (Mixed Precision)
--------------------------------------------------------------------------

Initializing Device and compiling on process 0...Done.
Initializing Devices 0-1 on core 0...Done.
Initializing Devices 0-1 on core 1...Done.
Initializing Devices 0-1 on core 2...Done.
Initializing Devices 0-1 on core 3...Done.
Initializing Devices 0-1 on core 4...Done.
Initializing Devices 0-1 on core 5...Done.

  generated 0 of 0 mixed pair_coeff terms from geometric mixing rule
Setting up Verlet run ...
  Unit style    : lj
  Current step  : 0
  Time step     : 0.012
WARNING: Communication cutoff 1.52 is shorter than a bond length based estimate of 1.855. This may lead to errors. (../comm.cpp:723)
Per MPI rank memory allocation (min/avg/max) = 3.892 | 3.893 | 3.894 Mbytes
Step Temp E_pair E_mol TotEng Press 
       0   0.97029772   0.44484087    20.494523    22.394765    4.6721833 
     100    0.9699174   0.43771293    20.506863    22.399406    4.6968374 
Loop time of 0.183719 on 12 procs for 100 steps with 32000 atoms

Performance: 564339.465 tau/day, 544.309 timesteps/s
96.8% CPU use with 12 MPI tasks x 1 OpenMP threads

MPI task timing breakdown:
Section |  min time  |  avg time  |  max time  |%varavg|  %CPU | %total
-----------------------------------------------------------------------
Pair    | 0.089891   | 0.095491   | 0.099664   |   0.9 |  97.6 | 51.98
Bond    | 0.0080325  | 0.0082145  | 0.0083703  |   0.1 |  95.9 |  4.47
Neigh   | 0.0019569  | 0.0019979  | 0.0020755  |   0.1 |  96.5 |  1.09
Comm    | 0.020738   | 0.022644   | 0.024481   |   0.8 |  95.7 | 12.33
Output  | 7.2468e-05 | 0.00043102 | 0.00080713 |   0.0 |  99.9 |  0.23
Modify  | 0.020338   | 0.020523   | 0.020813   |   0.1 |  95.8 | 11.17
Other   |            | 0.03442    |            |       |       | 18.73

Nlocal:        2666.67 ave        2682 max        2637 min
Histogram: 1 1 0 0 1 0 3 1 2 3
Nghost:        2071.25 ave        2093 max        2059 min
Histogram: 2 0 5 2 1 0 0 0 1 1
Neighs:              0 ave           0 max           0 min
Histogram: 12 0 0 0 0 0 0 0 0 0

Total # of neighbors = 0
Ave neighs/atom = 0
Ave special neighs/atom = 1.98
Neighbor list builds = 25
Dangerous builds = 0


---------------------------------------------------------------------
      Device Time Info (average): 
---------------------------------------------------------------------
Data Transfer:   0.0078 s.
Neighbor copy:   0.0387 s.
Neighbor build:  0.0188 s.
Force calc:      0.0233 s.
Device Overhead: 0.0684 s.
Average split:   1.0000.
Lanes / atom:    4.
Vector width:    32.
Max Mem / Proc:  0.91 MB.
CPU Neighbor:    0.0054 s.
CPU Cast/Pack:   0.0035 s.
CPU Driver_Time: 0.0023 s.
CPU Idle_Time:   0.0383 s.
---------------------------------------------------------------------

Total wall time: 0:00:07
Intel(R) VTune(TM) Profiler 2022.2.0 collection completed successfully. Use the "aps --report /home/ubuntu/lammps/bench/aps_result_20220420" command to generate textual and HTML reports for the profiling session.
