LAMMPS (7 Jan 2022)
  using 1 OpenMP thread(s) per MPI task
Reading data file ...
  orthogonal box = (-16.796 -16.796 -16.796) to (16.796 16.796 16.796)
  2 by 2 by 3 MPI processor grid
  reading atoms ...
  32000 atoms
  reading velocities ...
  32000 velocities
  scanning bonds ...
  1 = max bonds/atom
  reading bonds ...
  31680 bonds
Finding 1-2 1-3 1-4 neighbors ...
  special bond factors lj:    0        1        1       
  special bond factors coul:  0        1        1       
     2 = max # of 1-2 neighbors
     2 = max # of special neighbors
  special bonds CPU = 0.003 seconds
  read_data CPU = 0.157 seconds
New timer settings: style=full  mode=sync  timeout=off

CITE-CITE-CITE-CITE-CITE-CITE-CITE-CITE-CITE-CITE-CITE-CITE-CITE

Your simulation uses code contributions which should be cited:
- GPU package (short-range, long-range and three-body potentials):
The log file lists these citations in BibTeX format.

CITE-CITE-CITE-CITE-CITE-CITE-CITE-CITE-CITE-CITE-CITE-CITE-CITE


--------------------------------------------------------------------------
- Using acceleration for lj/cut:
-  with 3 proc(s) per device.
-  Horizontal vector operations: ENABLED
-  Shared memory system: No
--------------------------------------------------------------------------
Device 0: Tesla V100-SXM2-16GB, 80 CUs, 15/16 GB, 1.5 GHZ (Mixed Precision)
Device 1: Tesla V100-SXM2-16GB, 80 CUs, 1.5 GHZ (Mixed Precision)
Device 2: Tesla V100-SXM2-16GB, 80 CUs, 1.5 GHZ (Mixed Precision)
Device 3: Tesla V100-SXM2-16GB, 80 CUs, 1.5 GHZ (Mixed Precision)
--------------------------------------------------------------------------

Initializing Device and compiling on process 0...Done.
Initializing Devices 0-3 on core 0...Done.
Initializing Devices 0-3 on core 1...Done.
Initializing Devices 0-3 on core 2...Done.

  generated 0 of 0 mixed pair_coeff terms from geometric mixing rule
Setting up Verlet run ...
  Unit style    : lj
  Current step  : 0
  Time step     : 0.012
WARNING: Communication cutoff 1.52 is shorter than a bond length based estimate of 1.855. This may lead to errors. (../comm.cpp:723)
Per MPI rank memory allocation (min/avg/max) = 3.892 | 3.893 | 3.894 Mbytes
Step Temp E_pair E_mol TotEng Press 
       0   0.97029772   0.44484087    20.494523    22.394765    4.6721833 
     100    0.9699174   0.43771293    20.506863    22.399406    4.6968374 
Loop time of 0.127468 on 12 procs for 100 steps with 32000 atoms

Performance: 813381.968 tau/day, 784.512 timesteps/s
98.3% CPU use with 12 MPI tasks x 1 OpenMP threads

MPI task timing breakdown:
Section |  min time  |  avg time  |  max time  |%varavg|  %CPU | %total
-----------------------------------------------------------------------
Pair    | 0.039427   | 0.046786   | 0.054158   |   2.5 |  98.8 | 36.70
Bond    | 0.0083074  | 0.0084406  | 0.0085186  |   0.1 |  97.5 |  6.62
Neigh   | 0.0017241  | 0.0017318  | 0.0017414  |   0.0 |  98.3 |  1.36
Comm    | 0.013308   | 0.013417   | 0.013542   |   0.1 |  97.4 | 10.53
Output  | 6.7997e-05 | 6.9262e-05 | 7.9544e-05 |   0.0 | 100.0 |  0.05
Modify  | 0.02184    | 0.022541   | 0.024419   |   0.6 |  98.0 | 17.68
Sync    | 0.022253   | 0.029925   | 0.037407   |   3.2 |  98.5 | 23.48
Other   |            | 0.03448    |            |       |       | 27.05

Nlocal:        2666.67 ave        2682 max        2637 min
Histogram: 1 1 0 0 1 0 3 1 2 3
Nghost:        2071.25 ave        2093 max        2059 min
Histogram: 2 0 5 2 1 0 0 0 1 1
Neighs:              0 ave           0 max           0 min
Histogram: 12 0 0 0 0 0 0 0 0 0

Total # of neighbors = 0
Ave neighs/atom = 0
Ave special neighs/atom = 1.98
Neighbor list builds = 25
Dangerous builds = 0


---------------------------------------------------------------------
      Device Time Info (average): 
---------------------------------------------------------------------
Data Transfer:   0.0072 s.
Neighbor copy:   0.0195 s.
Neighbor build:  0.0085 s.
Force calc:      0.0124 s.
Device Overhead: 0.0346 s.
Average split:   1.0000.
Lanes / atom:    4.
Vector width:    32.
Max Mem / Proc:  0.91 MB.
CPU Neighbor:    0.0053 s.
CPU Cast/Pack:   0.0035 s.
CPU Driver_Time: 0.0021 s.
CPU Idle_Time:   0.0105 s.
---------------------------------------------------------------------

Total wall time: 0:00:07
Intel(R) VTune(TM) Profiler 2022.1.0 collection completed successfully. Use the "aps --report /home/ubuntu/lammps/bench/aps_result_20220414" command to generate textual and HTML reports for the profiling session.
