LAMMPS (7 Jan 2022)
  using 1 OpenMP thread(s) per MPI task
Reading data file ...
  orthogonal box = (-16.796 -16.796 -16.796) to (16.796 16.796 16.796)
  2 by 2 by 7 MPI processor grid
  reading atoms ...
  32000 atoms
  reading velocities ...
  32000 velocities
  scanning bonds ...
  1 = max bonds/atom
  reading bonds ...
  31680 bonds
Finding 1-2 1-3 1-4 neighbors ...
  special bond factors lj:    0        1        1       
  special bond factors coul:  0        1        1       
     2 = max # of 1-2 neighbors
     2 = max # of special neighbors
  special bonds CPU = 0.003 seconds
  read_data CPU = 0.141 seconds
New timer settings: style=full  mode=sync  timeout=off

CITE-CITE-CITE-CITE-CITE-CITE-CITE-CITE-CITE-CITE-CITE-CITE-CITE

Your simulation uses code contributions which should be cited:
- GPU package (short-range, long-range and three-body potentials):
The log file lists these citations in BibTeX format.

CITE-CITE-CITE-CITE-CITE-CITE-CITE-CITE-CITE-CITE-CITE-CITE-CITE


--------------------------------------------------------------------------
- Using acceleration for lj/cut:
-  with 14 proc(s) per device.
-  Horizontal vector operations: ENABLED
-  Shared memory system: No
--------------------------------------------------------------------------
Device 0: Tesla V100-SXM2-16GB, 80 CUs, 12/16 GB, 1.5 GHZ (Mixed Precision)
Device 1: Tesla V100-SXM2-16GB, 80 CUs, 1.5 GHZ (Mixed Precision)
--------------------------------------------------------------------------

Initializing Device and compiling on process 0...Done.
Initializing Devices 0-1 on core 0...Done.
Initializing Devices 0-1 on core 1...Done.
Initializing Devices 0-1 on core 2...Done.
Initializing Devices 0-1 on core 3...Done.
Initializing Devices 0-1 on core 4...Done.
Initializing Devices 0-1 on core 5...Done.
Initializing Devices 0-1 on core 6...Done.
Initializing Devices 0-1 on core 7...Done.
Initializing Devices 0-1 on core 8...Done.
Initializing Devices 0-1 on core 9...Done.
Initializing Devices 0-1 on core 10...Done.
Initializing Devices 0-1 on core 11...Done.
Initializing Devices 0-1 on core 12...Done.
Initializing Devices 0-1 on core 13...Done.

  generated 0 of 0 mixed pair_coeff terms from geometric mixing rule
Setting up Verlet run ...
  Unit style    : lj
  Current step  : 0
  Time step     : 0.012
WARNING: Communication cutoff 1.52 is shorter than a bond length based estimate of 1.855. This may lead to errors. (../comm.cpp:723)
Per MPI rank memory allocation (min/avg/max) = 3.787 | 3.789 | 3.791 Mbytes
Step Temp E_pair E_mol TotEng Press 
       0   0.97029772   0.44484087    20.494523    22.394765    4.6721833 
     100   0.97177873   0.44104366    20.504901    22.403567    4.7071092 
Loop time of 0.326764 on 28 procs for 100 steps with 32000 atoms

Performance: 317292.779 tau/day, 306.031 timesteps/s
98.1% CPU use with 28 MPI tasks x 1 OpenMP threads

MPI task timing breakdown:
Section |  min time  |  avg time  |  max time  |%varavg|  %CPU | %total
-----------------------------------------------------------------------
Pair    | 0.17999    | 0.1942     | 0.20956    |   1.6 |  98.3 | 59.43
Bond    | 0.0033817  | 0.003463   | 0.0035339  |   0.1 |  96.4 |  1.06
Neigh   | 0.00082449 | 0.00083106 | 0.00083734 |   0.0 |  98.4 |  0.25
Comm    | 0.01286    | 0.013028   | 0.013265   |   0.1 |  96.4 |  3.99
Output  | 5.8146e-05 | 5.8975e-05 | 7.0297e-05 |   0.0 | 100.0 |  0.02
Modify  | 0.0083914  | 0.0086906  | 0.0096291  |   0.3 |  97.0 |  2.66
Sync    | 0.088348   | 0.10365    | 0.11777    |   2.2 |  98.2 | 31.72
Other   |            | 0.1065     |            |       |       | 32.59

Nlocal:        1142.86 ave        1168 max        1118 min
Histogram: 2 2 2 3 5 4 4 2 1 3
Nghost:        1464.39 ave        1490 max        1429 min
Histogram: 1 1 1 3 1 7 6 4 3 1
Neighs:              0 ave           0 max           0 min
Histogram: 28 0 0 0 0 0 0 0 0 0

Total # of neighbors = 0
Ave neighs/atom = 0
Ave special neighs/atom = 1.98
Neighbor list builds = 25
Dangerous builds = 0


---------------------------------------------------------------------
      Device Time Info (average): 
---------------------------------------------------------------------
Data Transfer:   0.0101 s.
Neighbor copy:   0.0778 s.
Neighbor build:  0.0401 s.
Force calc:      0.0457 s.
Device Overhead: 0.1422 s.
Average split:   1.0000.
Lanes / atom:    4.
Vector width:    32.
Max Mem / Proc:  0.41 MB.
CPU Neighbor:    0.0036 s.
CPU Cast/Pack:   0.0018 s.
CPU Driver_Time: 0.0024 s.
CPU Idle_Time:   0.0938 s.
---------------------------------------------------------------------

Total wall time: 0:00:16
Intel(R) VTune(TM) Profiler 2022.1.0 collection completed successfully. Use the "aps --report /home/ubuntu/lammps/bench/aps_result_20220414" command to generate textual and HTML reports for the profiling session.
