LAMMPS (7 Jan 2022)
  using 1 OpenMP thread(s) per MPI task
Reading data file ...
  orthogonal box = (-16.796 -16.796 -16.796) to (16.796 16.796 16.796)
  2 by 2 by 4 MPI processor grid
  reading atoms ...
  32000 atoms
  reading velocities ...
  32000 velocities
  scanning bonds ...
  1 = max bonds/atom
  reading bonds ...
  31680 bonds
Finding 1-2 1-3 1-4 neighbors ...
  special bond factors lj:    0        1        1       
  special bond factors coul:  0        1        1       
     2 = max # of 1-2 neighbors
     2 = max # of special neighbors
  special bonds CPU = 0.002 seconds
  read_data CPU = 0.156 seconds
New timer settings: style=full  mode=sync  timeout=off

CITE-CITE-CITE-CITE-CITE-CITE-CITE-CITE-CITE-CITE-CITE-CITE-CITE

Your simulation uses code contributions which should be cited:
- GPU package (short-range, long-range and three-body potentials):
The log file lists these citations in BibTeX format.

CITE-CITE-CITE-CITE-CITE-CITE-CITE-CITE-CITE-CITE-CITE-CITE-CITE


--------------------------------------------------------------------------
- Using acceleration for lj/cut:
-  with 16 proc(s) per device.
-  Horizontal vector operations: ENABLED
-  Shared memory system: No
--------------------------------------------------------------------------
Device 0: Tesla V100-SXM2-16GB, 80 CUs, 11/16 GB, 1.5 GHZ (Mixed Precision)
--------------------------------------------------------------------------

Initializing Device and compiling on process 0...Done.
Initializing Device 0 on core 0...Done.
Initializing Device 0 on core 1...Done.
Initializing Device 0 on core 2...Done.
Initializing Device 0 on core 3...Done.
Initializing Device 0 on core 4...Done.
Initializing Device 0 on core 5...Done.
Initializing Device 0 on core 6...Done.
Initializing Device 0 on core 7...Done.
Initializing Device 0 on core 8...Done.
Initializing Device 0 on core 9...Done.
Initializing Device 0 on core 10...Done.
Initializing Device 0 on core 11...Done.
Initializing Device 0 on core 12...Done.
Initializing Device 0 on core 13...Done.
Initializing Device 0 on core 14...Done.
Initializing Device 0 on core 15...Done.

  generated 0 of 0 mixed pair_coeff terms from geometric mixing rule
Setting up Verlet run ...
  Unit style    : lj
  Current step  : 0
  Time step     : 0.012
WARNING: Communication cutoff 1.52 is shorter than a bond length based estimate of 1.855. This may lead to errors. (../comm.cpp:723)
Per MPI rank memory allocation (min/avg/max) = 3.846 | 3.848 | 3.85 Mbytes
Step Temp E_pair E_mol TotEng Press 
       0   0.97029772   0.44484087    20.494523    22.394765    4.6721833 
     100    0.9739454   0.45036235    20.501985    22.413219    4.6948795 
Loop time of 0.392323 on 16 procs for 100 steps with 32000 atoms

Performance: 264271.980 tau/day, 254.892 timesteps/s
98.7% CPU use with 16 MPI tasks x 1 OpenMP threads

MPI task timing breakdown:
Section |  min time  |  avg time  |  max time  |%varavg|  %CPU | %total
-----------------------------------------------------------------------
Pair    | 0.2205     | 0.23577    | 0.24943    |   1.9 |  99.1 | 60.10
Bond    | 0.0059239  | 0.005972   | 0.0060159  |   0.0 |  96.5 |  1.52
Neigh   | 0.0013312  | 0.0013415  | 0.0013469  |   0.0 |  96.1 |  0.34
Comm    | 0.012684   | 0.012748   | 0.012858   |   0.0 |  96.2 |  3.25
Output  | 6.1664e-05 | 6.2564e-05 | 7.2543e-05 |   0.0 | 100.0 |  0.02
Modify  | 0.013884   | 0.014264   | 0.014605   |   0.1 |  97.8 |  3.64
Sync    | 0.10445    | 0.11815    | 0.13335    |   2.7 |  98.4 | 30.12
Other   |            | 0.1222     |            |       |       | 31.14

Nlocal:           2000 ave        2025 max        1974 min
Histogram: 1 0 2 1 3 3 3 2 0 1
Nghost:        1795.62 ave        1826 max        1766 min
Histogram: 1 2 0 1 5 1 3 0 0 3
Neighs:              0 ave           0 max           0 min
Histogram: 16 0 0 0 0 0 0 0 0 0

Total # of neighbors = 0
Ave neighs/atom = 0
Ave special neighs/atom = 1.98
Neighbor list builds = 25
Dangerous builds = 0


---------------------------------------------------------------------
      Device Time Info (average): 
---------------------------------------------------------------------
Data Transfer:   0.0145 s.
Neighbor copy:   0.0958 s.
Neighbor build:  0.0497 s.
Force calc:      0.0571 s.
Device Overhead: 0.1863 s.
Average split:   1.0000.
Lanes / atom:    4.
Vector width:    32.
Max Mem / Proc:  0.70 MB.
CPU Neighbor:    0.0053 s.
CPU Cast/Pack:   0.0027 s.
CPU Driver_Time: 0.0023 s.
CPU Idle_Time:   0.1225 s.
---------------------------------------------------------------------

Total wall time: 0:00:09
Intel(R) VTune(TM) Profiler 2022.1.0 collection completed successfully. Use the "aps --report /home/ubuntu/lammps/bench/aps_result_20220414" command to generate textual and HTML reports for the profiling session.
