LAMMPS (7 Jan 2022)
  using 1 OpenMP thread(s) per MPI task
New timer settings: style=full  mode=nosync  timeout=off
Reading data file ...
  orthogonal box = (-16.796 -16.796 -16.796) to (16.796 16.796 16.796)
  2 by 2 by 4 MPI processor grid
  reading atoms ...
  32000 atoms
  reading velocities ...
  32000 velocities
  scanning bonds ...
  1 = max bonds/atom
  reading bonds ...
  31680 bonds
Finding 1-2 1-3 1-4 neighbors ...
  special bond factors lj:    0        1        1       
  special bond factors coul:  0        1        1       
     2 = max # of 1-2 neighbors
     2 = max # of special neighbors
  special bonds CPU = 0.003 seconds
  read_data CPU = 0.158 seconds
Replicating atoms ...
  orthogonal box = (-16.796 -16.796 -16.796) to (117.572 117.572 117.572)
  2 by 2 by 4 MPI processor grid
  2048000 atoms
  2027520 bonds
Finding 1-2 1-3 1-4 neighbors ...
  special bond factors lj:    0        1        1       
  special bond factors coul:  0        1        1       
     2 = max # of 1-2 neighbors
     2 = max # of special neighbors
  special bonds CPU = 0.057 seconds
  replicate CPU = 0.119 seconds

CITE-CITE-CITE-CITE-CITE-CITE-CITE-CITE-CITE-CITE-CITE-CITE-CITE

Your simulation uses code contributions which should be cited:
- GPU package (short-range, long-range and three-body potentials):
The log file lists these citations in BibTeX format.

CITE-CITE-CITE-CITE-CITE-CITE-CITE-CITE-CITE-CITE-CITE-CITE-CITE


--------------------------------------------------------------------------
- Using acceleration for lj/cut:
-  with 16 proc(s) per device.
-  Horizontal vector operations: ENABLED
-  Shared memory system: No
--------------------------------------------------------------------------
Device 0: Tesla V100-SXM2-16GB, 80 CUs, 11/16 GB, 1.5 GHZ (Mixed Precision)
--------------------------------------------------------------------------

Initializing Device and compiling on process 0...Done.
Initializing Device 0 on core 0...Done.
Initializing Device 0 on core 1...Done.
Initializing Device 0 on core 2...Done.
Initializing Device 0 on core 3...Done.
Initializing Device 0 on core 4...Done.
Initializing Device 0 on core 5...Done.
Initializing Device 0 on core 6...Done.
Initializing Device 0 on core 7...Done.
Initializing Device 0 on core 8...Done.
Initializing Device 0 on core 9...Done.
Initializing Device 0 on core 10...Done.
Initializing Device 0 on core 11...Done.
Initializing Device 0 on core 12...Done.
Initializing Device 0 on core 13...Done.
Initializing Device 0 on core 14...Done.
Initializing Device 0 on core 15...Done.

  generated 0 of 0 mixed pair_coeff terms from geometric mixing rule
Setting up Verlet run ...
  Unit style    : lj
  Current step  : 0
  Time step     : 0.012
WARNING: Communication cutoff 1.52 is shorter than a bond length based estimate of 1.855. This may lead to errors. (../comm.cpp:723)
Per MPI rank memory allocation (min/avg/max) = 48.14 | 48.14 | 48.14 Mbytes
Step Temp E_pair E_mol TotEng Press 
       0   0.97026787   0.44484102    20.494523    22.394765    4.6721851 
     100   0.97367168   0.44166939    20.502518    22.404695    4.6893307 
Loop time of 3.11321 on 16 procs for 100 steps with 2048000 atoms

Performance: 33303.210 tau/day, 32.121 timesteps/s
98.7% CPU use with 16 MPI tasks x 1 OpenMP threads

MPI task timing breakdown:
Section |  min time  |  avg time  |  max time  |%varavg|  %CPU | %total
-----------------------------------------------------------------------
Pair    | 0.51474    | 0.53996    | 0.58068    |   2.5 |  98.7 | 17.34
Bond    | 0.5559     | 0.56058    | 0.56561    |   0.4 |  99.6 | 18.01
Neigh   | 0.29166    | 0.29611    | 0.29864    |   0.3 |  99.6 |  9.51
Comm    | 0.39729    | 0.40795    | 0.4228     |   1.3 |  96.0 | 13.10
Output  | 0.00085181 | 0.00090313 | 0.00098741 |   0.0 | 100.0 |  0.03
Modify  | 0.93533    | 0.94541    | 0.95671    |   0.5 |  99.5 | 30.37
Other   |            | 0.3623     |            |       |       | 11.64

Nlocal:         128000 ave      128052 max      127921 min
Histogram: 1 0 0 2 1 3 4 2 1 2
Nghost:        24502.1 ave       24600 max       24435 min
Histogram: 1 1 5 1 3 2 1 0 1 1
Neighs:              0 ave           0 max           0 min
Histogram: 16 0 0 0 0 0 0 0 0 0

Total # of neighbors = 0
Ave neighs/atom = 0
Ave special neighs/atom = 1.98
Neighbor list builds = 26
Dangerous builds = 0


---------------------------------------------------------------------
      Device Time Info (average): 
---------------------------------------------------------------------
Data Transfer:   0.3434 s.
Neighbor copy:   0.1600 s.
Neighbor build:  0.1377 s.
Force calc:      0.0522 s.
Device Overhead: 0.1621 s.
Average split:   1.0000.
Lanes / atom:    4.
Vector width:    32.
Max Mem / Proc:  41.65 MB.
CPU Neighbor:    0.1404 s.
CPU Cast/Pack:   0.1700 s.
CPU Driver_Time: 0.0024 s.
CPU Idle_Time:   0.0352 s.
---------------------------------------------------------------------

Total wall time: 0:00:13
Intel(R) VTune(TM) Profiler 2022.2.0 collection completed successfully. Use the "aps --report /home/ubuntu/lammps/bench/aps_result_20220420" command to generate textual and HTML reports for the profiling session.
