LAMMPS (7 Jan 2022)
  using 1 OpenMP thread(s) per MPI task
New timer settings: style=full  mode=nosync  timeout=off
Lattice spacing in x,y,z = 3.615 3.615 3.615
Created orthogonal box = (0 0 0) to (72.3 72.3 72.3)
  1 by 2 by 3 MPI processor grid
Created 32000 atoms
  using lattice units in orthogonal box = (0 0 0) to (72.3 72.3 72.3)
  create_atoms CPU = 0.001 seconds
Reading eam potential file Cu_u3.eam with DATE: 2007-06-11

CITE-CITE-CITE-CITE-CITE-CITE-CITE-CITE-CITE-CITE-CITE-CITE-CITE

Your simulation uses code contributions which should be cited:
- GPU package (short-range, long-range and three-body potentials):
The log file lists these citations in BibTeX format.

CITE-CITE-CITE-CITE-CITE-CITE-CITE-CITE-CITE-CITE-CITE-CITE-CITE


--------------------------------------------------------------------------
- Using acceleration for eam:
-  with 6 proc(s) per device.
-  Horizontal vector operations: ENABLED
-  Shared memory system: No
--------------------------------------------------------------------------
Device 0: Tesla V100-SXM2-16GB, 80 CUs, 14/16 GB, 1.5 GHZ (Mixed Precision)
--------------------------------------------------------------------------

Initializing Device and compiling on process 0...Done.
Initializing Device 0 on core 0...Done.
Initializing Device 0 on core 1...Done.
Initializing Device 0 on core 2...Done.
Initializing Device 0 on core 3...Done.
Initializing Device 0 on core 4...Done.
Initializing Device 0 on core 5...Done.

Setting up Verlet run ...
  Unit style    : metal
  Current step  : 0
  Time step     : 0.005
Per MPI rank memory allocation (min/avg/max) = 3.021 | 3.049 | 3.076 Mbytes
Step Temp E_pair E_mol TotEng Press 
       0         1600      -113280            0   -106662.08    18703.562 
      50     781.6906   -109873.35            0   -106640.13    52273.122 
     100    801.83198    -109957.3            0   -106640.77    51322.827 
Loop time of 0.216501 on 6 procs for 100 steps with 32000 atoms

Performance: 199.537 ns/day, 0.120 hours/ns, 461.892 timesteps/s
89.0% CPU use with 6 MPI tasks x 1 OpenMP threads

MPI task timing breakdown:
Section |  min time  |  avg time  |  max time  |%varavg|  %CPU | %total
-----------------------------------------------------------------------
Pair    | 0.14363    | 0.1505     | 0.16153    |   1.5 |  88.7 | 69.51
Neigh   | 0.00017213 | 0.00019483 | 0.00020753 |   0.0 | 100.0 |  0.09
Comm    | 0.033798   | 0.041308   | 0.045878   |   2.0 |  88.5 | 19.08
Output  | 0.00052055 | 0.00077991 | 0.0010565  |   0.0 |  85.8 |  0.36
Modify  | 0.0022609  | 0.002451   | 0.002547   |   0.2 |  86.5 |  1.13
Other   |            | 0.02127    |            |       |       |  9.82

Nlocal:        5333.33 ave        5411 max        5195 min
Histogram: 2 0 0 0 0 0 0 0 1 3
Nghost:        7247.83 ave        7310 max        7150 min
Histogram: 1 1 0 0 0 0 0 0 3 1
Neighs:              0 ave           0 max           0 min
Histogram: 6 0 0 0 0 0 0 0 0 0

Total # of neighbors = 0
Ave neighs/atom = 0
Neighbor list builds = 13
Dangerous builds = 0


---------------------------------------------------------------------
      Device Time Info (average): 
---------------------------------------------------------------------
Data Transfer:   0.0170 s.
Neighbor copy:   0.0003 s.
Neighbor build:  0.0074 s.
Force calc:      0.0713 s.
Device Overhead: 0.0730 s.
Average split:   1.0000.
Lanes / atom:    4.
Vector width:    32.
Max Mem / Proc:  4.91 MB.
CPU Neighbor:    0.0063 s.
CPU Cast/Pack:   0.0090 s.
CPU Driver_Time: 0.0027 s.
CPU Idle_Time:   0.0396 s.
---------------------------------------------------------------------

Total wall time: 0:00:03
Intel(R) VTune(TM) Profiler 2022.2.0 collection completed successfully. Use the "aps --report /home/ubuntu/lammps/bench/aps_result_20220420" command to generate textual and HTML reports for the profiling session.
