LAMMPS (7 Jan 2022)
  using 1 OpenMP thread(s) per MPI task
New timer settings: style=full  mode=nosync  timeout=off
Lattice spacing in x,y,z = 3.615 3.615 3.615
Created orthogonal box = (0 0 0) to (144.6 144.6 144.6)
  2 by 4 by 4 MPI processor grid
Created 256000 atoms
  using lattice units in orthogonal box = (0 0 0) to (144.6 144.6 144.6)
  create_atoms CPU = 0.002 seconds
Reading eam potential file Cu_u3.eam with DATE: 2007-06-11

CITE-CITE-CITE-CITE-CITE-CITE-CITE-CITE-CITE-CITE-CITE-CITE-CITE

Your simulation uses code contributions which should be cited:
- GPU package (short-range, long-range and three-body potentials):
The log file lists these citations in BibTeX format.

CITE-CITE-CITE-CITE-CITE-CITE-CITE-CITE-CITE-CITE-CITE-CITE-CITE


--------------------------------------------------------------------------
- Using acceleration for eam:
-  with 8 proc(s) per device.
-  Horizontal vector operations: ENABLED
-  Shared memory system: No
--------------------------------------------------------------------------
Device 0: Tesla V100-SXM2-16GB, 80 CUs, 13/16 GB, 1.5 GHZ (Mixed Precision)
Device 1: Tesla V100-SXM2-16GB, 80 CUs, 1.5 GHZ (Mixed Precision)
Device 2: Tesla V100-SXM2-16GB, 80 CUs, 1.5 GHZ (Mixed Precision)
Device 3: Tesla V100-SXM2-16GB, 80 CUs, 1.5 GHZ (Mixed Precision)
--------------------------------------------------------------------------

Initializing Device and compiling on process 0...Done.
Initializing Devices 0-3 on core 0...Done.
Initializing Devices 0-3 on core 1...Done.
Initializing Devices 0-3 on core 2...Done.
Initializing Devices 0-3 on core 3...Done.
Initializing Devices 0-3 on core 4...Done.
Initializing Devices 0-3 on core 5...Done.
Initializing Devices 0-3 on core 6...Done.
Initializing Devices 0-3 on core 7...Done.

Setting up Verlet run ...
  Unit style    : metal
  Current step  : 0
  Time step     : 0.005
Per MPI rank memory allocation (min/avg/max) = 5.358 | 5.44 | 5.484 Mbytes
Step Temp E_pair E_mol TotEng Press 
       0         1600   -906239.96            0   -853295.21    18704.153 
      50    780.37024   -878942.76            0   -853119.94    52325.545 
     100    798.91517   -879560.79            0   -853124.31    51436.912 
Loop time of 0.319113 on 32 procs for 100 steps with 256000 atoms

Performance: 135.375 ns/day, 0.177 hours/ns, 313.369 timesteps/s
93.0% CPU use with 32 MPI tasks x 1 OpenMP threads

MPI task timing breakdown:
Section |  min time  |  avg time  |  max time  |%varavg|  %CPU | %total
-----------------------------------------------------------------------
Pair    | 0.20631    | 0.21987    | 0.22996    |   1.3 |  93.0 | 68.90
Neigh   | 0.00036001 | 0.0003886  | 0.00044256 |   0.0 |  95.4 |  0.12
Comm    | 0.057829   | 0.065505   | 0.073136   |   1.5 |  92.4 | 20.53
Output  | 0.00050744 | 0.0019239  | 0.0033855  |   2.0 |  95.9 |  0.60
Modify  | 0.0032593  | 0.0033955  | 0.0036135  |   0.1 |  93.4 |  1.06
Other   |            | 0.02803    |            |       |       |  8.78

Nlocal:           8000 ave        8075 max        7907 min
Histogram: 1 2 1 2 6 8 4 3 1 4
Nghost:        9130.47 ave        9224 max        9054 min
Histogram: 2 3 3 4 7 7 2 1 2 1
Neighs:              0 ave           0 max           0 min
Histogram: 32 0 0 0 0 0 0 0 0 0

Total # of neighbors = 0
Ave neighs/atom = 0
Neighbor list builds = 15
Dangerous builds = 0


---------------------------------------------------------------------
      Device Time Info (average): 
---------------------------------------------------------------------
Data Transfer:   0.0428 s.
Neighbor copy:   0.0006 s.
Neighbor build:  0.0113 s.
Force calc:      0.0773 s.
Device Overhead: 0.0915 s.
Average split:   1.0000.
Lanes / atom:    4.
Vector width:    32.
Max Mem / Proc:  11.79 MB.
CPU Neighbor:    0.0230 s.
CPU Cast/Pack:   0.0127 s.
CPU Driver_Time: 0.0027 s.
CPU Idle_Time:   0.0434 s.
---------------------------------------------------------------------

Total wall time: 0:00:19
Intel(R) VTune(TM) Profiler 2022.2.0 collection completed successfully. Use the "aps --report /home/ubuntu/lammps/bench/aps_result_20220420" command to generate textual and HTML reports for the profiling session.
