LAMMPS (7 Jan 2022)
  using 1 OpenMP thread(s) per MPI task
Lattice spacing in x,y,z = 3.615 3.615 3.615
Created orthogonal box = (0 0 0) to (72.3 72.3 72.3)
  1 by 2 by 3 MPI processor grid
Created 32000 atoms
  using lattice units in orthogonal box = (0 0 0) to (72.3 72.3 72.3)
  create_atoms CPU = 0.001 seconds
Reading eam potential file Cu_u3.eam with DATE: 2007-06-11

CITE-CITE-CITE-CITE-CITE-CITE-CITE-CITE-CITE-CITE-CITE-CITE-CITE

Your simulation uses code contributions which should be cited:
- GPU package (short-range, long-range and three-body potentials):
The log file lists these citations in BibTeX format.

CITE-CITE-CITE-CITE-CITE-CITE-CITE-CITE-CITE-CITE-CITE-CITE-CITE


--------------------------------------------------------------------------
- Using acceleration for eam:
-  with 6 proc(s) per device.
-  Horizontal vector operations: ENABLED
-  Shared memory system: No
--------------------------------------------------------------------------
Device 0: Tesla V100-SXM2-16GB, 80 CUs, 14/16 GB, 1.5 GHZ (Double Precision)
--------------------------------------------------------------------------

Initializing Device and compiling on process 0...Done.
Initializing Device 0 on core 0...Done.
Initializing Device 0 on core 1...Done.
Initializing Device 0 on core 2...Done.
Initializing Device 0 on core 3...Done.
Initializing Device 0 on core 4...Done.
Initializing Device 0 on core 5...Done.

Setting up Verlet run ...
  Unit style    : metal
  Current step  : 0
  Time step     : 0.005
Per MPI rank memory allocation (min/avg/max) = 3.224 | 3.258 | 3.289 Mbytes
Step Temp E_pair E_mol TotEng Press 
       0         1600      -113280            0   -106662.09    18703.573 
      50    781.69049   -109873.35            0   -106640.13    52273.088 
     100      801.832    -109957.3            0   -106640.77    51322.821 
Loop time of 0.244317 on 6 procs for 100 steps with 32000 atoms

Performance: 176.819 ns/day, 0.136 hours/ns, 409.304 timesteps/s
95.5% CPU use with 6 MPI tasks x 1 OpenMP threads

MPI task timing breakdown:
Section |  min time  |  avg time  |  max time  |%varavg| %total
---------------------------------------------------------------
Pair    | 0.16332    | 0.17663    | 0.18863    |   2.1 | 72.30
Neigh   | 0.00018928 | 0.0001968  | 0.00020127 |   0.0 |  0.08
Comm    | 0.036737   | 0.042765   | 0.051051   |   2.6 | 17.50
Output  | 0.00043583 | 0.00092437 | 0.00142    |   0.0 |  0.38
Modify  | 0.0021712  | 0.0022651  | 0.0023993  |   0.1 |  0.93
Other   |            | 0.02154    |            |       |  8.81

Nlocal:        5333.33 ave        5411 max        5195 min
Histogram: 2 0 0 0 0 0 0 0 1 3
Nghost:        7247.83 ave        7310 max        7150 min
Histogram: 1 1 0 0 0 0 0 0 3 1
Neighs:              0 ave           0 max           0 min
Histogram: 6 0 0 0 0 0 0 0 0 0

Total # of neighbors = 0
Ave neighs/atom = 0
Neighbor list builds = 13
Dangerous builds = 0


---------------------------------------------------------------------
      Device Time Info (average): 
---------------------------------------------------------------------
Data Transfer:   0.0274 s.
Neighbor copy:   0.0005 s.
Neighbor build:  0.0079 s.
Force calc:      0.0796 s.
Device Overhead: 0.0762 s.
Average split:   1.0000.
Lanes / atom:    4.
Vector width:    32.
Max Mem / Proc:  5.21 MB.
CPU Neighbor:    0.0066 s.
CPU Cast/Pack:   0.0136 s.
CPU Driver_Time: 0.0047 s.
CPU Idle_Time:   0.0479 s.
---------------------------------------------------------------------

Total wall time: 0:00:07
Intel(R) VTune(TM) Profiler 2022.2.0 collection completed successfully. Use the "aps --report /home/ubuntu/lammps/bench/aps_result_20220610" command to generate textual and HTML reports for the profiling session.
