LAMMPS (7 Jan 2022)
  using 1 OpenMP thread(s) per MPI task
Lattice spacing in x,y,z = 3.615 3.615 3.615
Created orthogonal box = (0 0 0) to (289.2 289.2 289.2)
  3 by 4 by 4 MPI processor grid
Created 2048000 atoms
  using lattice units in orthogonal box = (0 0 0) to (289.2 289.2 289.2)
  create_atoms CPU = 0.012 seconds
Reading eam potential file Cu_u3.eam with DATE: 2007-06-11

CITE-CITE-CITE-CITE-CITE-CITE-CITE-CITE-CITE-CITE-CITE-CITE-CITE

Your simulation uses code contributions which should be cited:
- GPU package (short-range, long-range and three-body potentials):
The log file lists these citations in BibTeX format.

CITE-CITE-CITE-CITE-CITE-CITE-CITE-CITE-CITE-CITE-CITE-CITE-CITE


--------------------------------------------------------------------------
- Using acceleration for eam:
-  with 8 proc(s) per device.
-  Horizontal vector operations: ENABLED
-  Shared memory system: No
--------------------------------------------------------------------------
Device 0: Tesla V100-SXM2-16GB, 80 CUs, 13/16 GB, 1.5 GHZ (Double Precision)
Device 1: Tesla V100-SXM2-16GB, 80 CUs, 1.5 GHZ (Double Precision)
Device 2: Tesla V100-SXM2-16GB, 80 CUs, 1.5 GHZ (Double Precision)
Device 3: Tesla V100-SXM2-16GB, 80 CUs, 1.5 GHZ (Double Precision)
Device 4: Tesla V100-SXM2-16GB, 80 CUs, 1.5 GHZ (Double Precision)
Device 5: Tesla V100-SXM2-16GB, 80 CUs, 1.5 GHZ (Double Precision)
--------------------------------------------------------------------------

Initializing Device and compiling on process 0...Done.
Initializing Devices 0-5 on core 0...Done.
Initializing Devices 0-5 on core 1...Done.
Initializing Devices 0-5 on core 2...Done.
Initializing Devices 0-5 on core 3...Done.
Initializing Devices 0-5 on core 4...Done.
Initializing Devices 0-5 on core 5...Done.
Initializing Devices 0-5 on core 6...Done.
Initializing Devices 0-5 on core 7...Done.

Setting up Verlet run ...
  Unit style    : metal
  Current step  : 0
  Time step     : 0.005
Per MPI rank memory allocation (min/avg/max) = 13.15 | 14.88 | 15.85 Mbytes
Step Temp E_pair E_mol TotEng Press 
       0         1600     -7249920            0   -6826360.6    18704.149 
      50    780.81547   -7031660.9            0   -6824959.8    52291.364 
     100    798.21786   -7036295.3            0   -6824987.4    51479.467 
Loop time of 1.38994 on 48 procs for 100 steps with 2048000 atoms

Performance: 31.080 ns/day, 0.772 hours/ns, 71.945 timesteps/s
93.5% CPU use with 48 MPI tasks x 1 OpenMP threads

MPI task timing breakdown:
Section |  min time  |  avg time  |  max time  |%varavg| %total
---------------------------------------------------------------
Pair    | 0.81465    | 0.89612    | 0.99112    |   5.5 | 64.47
Neigh   | 0.01021    | 0.010892   | 0.011763   |   0.3 |  0.78
Comm    | 0.23827    | 0.28875    | 0.33437    |   5.1 | 20.77
Output  | 0.0016795  | 0.010561   | 0.018969   |   5.5 |  0.76
Modify  | 0.045457   | 0.052096   | 0.060146   |   2.2 |  3.75
Other   |            | 0.1315     |            |       |  9.46

Nlocal:        42666.7 ave       42983 max       42305 min
Histogram: 4 8 3 1 2 5 4 13 4 4
Nghost:        23453.6 ave       23637 max       23284 min
Histogram: 3 3 5 6 9 10 4 2 3 3
Neighs:              0 ave           0 max           0 min
Histogram: 48 0 0 0 0 0 0 0 0 0

Total # of neighbors = 0
Ave neighs/atom = 0
Neighbor list builds = 15
Dangerous builds = 0


---------------------------------------------------------------------
      Device Time Info (average): 
---------------------------------------------------------------------
Data Transfer:   0.3026 s.
Neighbor copy:   0.0022 s.
Neighbor build:  0.0121 s.
Force calc:      0.1576 s.
Device Overhead: 0.1031 s.
Average split:   1.0000.
Lanes / atom:    4.
Vector width:    32.
Max Mem / Proc:  39.97 MB.
CPU Neighbor:    0.0646 s.
CPU Cast/Pack:   0.1573 s.
CPU Driver_Time: 0.0055 s.
CPU Idle_Time:   0.1366 s.
---------------------------------------------------------------------

Total wall time: 0:01:04
Intel(R) VTune(TM) Profiler 2022.2.0 collection completed successfully. Use the "aps --report /home/ubuntu/lammps/bench/aps_result_20220610" command to generate textual and HTML reports for the profiling session.
