LAMMPS (7 Jan 2022)
  using 1 OpenMP thread(s) per MPI task
Lattice spacing in x,y,z = 3.615 3.615 3.615
Created orthogonal box = (0 0 0) to (289.2 289.2 289.2)
  3 by 4 by 4 MPI processor grid
Created 2048000 atoms
  using lattice units in orthogonal box = (0 0 0) to (289.2 289.2 289.2)
  create_atoms CPU = 0.013 seconds
Reading eam potential file Cu_u3.eam with DATE: 2007-06-11

CITE-CITE-CITE-CITE-CITE-CITE-CITE-CITE-CITE-CITE-CITE-CITE-CITE

Your simulation uses code contributions which should be cited:
- GPU package (short-range, long-range and three-body potentials):
The log file lists these citations in BibTeX format.

CITE-CITE-CITE-CITE-CITE-CITE-CITE-CITE-CITE-CITE-CITE-CITE-CITE


--------------------------------------------------------------------------
- Using acceleration for eam:
-  with 6 proc(s) per device.
-  Horizontal vector operations: ENABLED
-  Shared memory system: No
--------------------------------------------------------------------------
Device 0: Tesla V100-SXM2-16GB, 80 CUs, 14/16 GB, 1.5 GHZ (Mixed Precision)
Device 1: Tesla V100-SXM2-16GB, 80 CUs, 1.5 GHZ (Mixed Precision)
Device 2: Tesla V100-SXM2-16GB, 80 CUs, 1.5 GHZ (Mixed Precision)
Device 3: Tesla V100-SXM2-16GB, 80 CUs, 1.5 GHZ (Mixed Precision)
Device 4: Tesla V100-SXM2-16GB, 80 CUs, 1.5 GHZ (Mixed Precision)
Device 5: Tesla V100-SXM2-16GB, 80 CUs, 1.5 GHZ (Mixed Precision)
Device 6: Tesla V100-SXM2-16GB, 80 CUs, 1.5 GHZ (Mixed Precision)
Device 7: Tesla V100-SXM2-16GB, 80 CUs, 1.5 GHZ (Mixed Precision)
--------------------------------------------------------------------------

Initializing Device and compiling on process 0...Done.
Initializing Devices 0-7 on core 0...Done.
Initializing Devices 0-7 on core 1...Done.
Initializing Devices 0-7 on core 2...Done.
Initializing Devices 0-7 on core 3...Done.
Initializing Devices 0-7 on core 4...Done.
Initializing Devices 0-7 on core 5...Done.

Setting up Verlet run ...
  Unit style    : metal
  Current step  : 0
  Time step     : 0.005
Per MPI rank memory allocation (min/avg/max) = 12.06 | 13.78 | 14.73 Mbytes
Step Temp E_pair E_mol TotEng Press 
       0         1600   -7249919.7            0   -6826360.2    18704.255 
      50    780.81546   -7031660.8            0   -6824959.8    52291.384 
     100    798.21787   -7036295.3            0   -6824987.3    51479.487 
Loop time of 0.967185 on 48 procs for 100 steps with 2048000 atoms

Performance: 44.666 ns/day, 0.537 hours/ns, 103.393 timesteps/s
97.0% CPU use with 48 MPI tasks x 1 OpenMP threads

MPI task timing breakdown:
Section |  min time  |  avg time  |  max time  |%varavg| %total
---------------------------------------------------------------
Pair    | 0.47679    | 0.54057    | 0.60421    |   5.5 | 55.89
Neigh   | 0.010204   | 0.010983   | 0.011754   |   0.3 |  1.14
Comm    | 0.21467    | 0.24856    | 0.28404    |   4.3 | 25.70
Output  | 0.0014212  | 0.0061529  | 0.01407    |   5.1 |  0.64
Modify  | 0.055156   | 0.058706   | 0.062904   |   0.7 |  6.07
Other   |            | 0.1022     |            |       | 10.57

Nlocal:        42666.7 ave       42983 max       42305 min
Histogram: 4 8 3 1 2 5 4 13 4 4
Nghost:        23453.6 ave       23637 max       23284 min
Histogram: 3 3 5 6 9 10 4 2 3 3
Neighs:              0 ave           0 max           0 min
Histogram: 48 0 0 0 0 0 0 0 0 0

Total # of neighbors = 0
Ave neighs/atom = 0
Neighbor list builds = 15
Dangerous builds = 0


---------------------------------------------------------------------
      Device Time Info (average): 
---------------------------------------------------------------------
Data Transfer:   0.1949 s.
Neighbor copy:   0.0017 s.
Neighbor build:  0.0169 s.
Force calc:      0.1258 s.
Device Overhead: 0.0787 s.
Average split:   1.0000.
Lanes / atom:    4.
Vector width:    32.
Max Mem / Proc:  38.61 MB.
CPU Neighbor:    0.0783 s.
CPU Cast/Pack:   0.1312 s.
CPU Driver_Time: 0.0057 s.
CPU Idle_Time:   0.1146 s.
---------------------------------------------------------------------

Total wall time: 0:01:06
Intel(R) VTune(TM) Profiler 2022.2.0 collection completed successfully. Use the "aps --report /home/ubuntu/lammps/bench/aps_result_20220530" command to generate textual and HTML reports for the profiling session.
