LAMMPS (7 Jan 2022)
  using 1 OpenMP thread(s) per MPI task
Lattice spacing in x,y,z = 3.615 3.615 3.615
Created orthogonal box = (0 0 0) to (72.3 72.3 72.3)
  2 by 3 by 3 MPI processor grid
Created 32000 atoms
  using lattice units in orthogonal box = (0 0 0) to (72.3 72.3 72.3)
  create_atoms CPU = 0.001 seconds
Reading eam potential file Cu_u3.eam with DATE: 2007-06-11

CITE-CITE-CITE-CITE-CITE-CITE-CITE-CITE-CITE-CITE-CITE-CITE-CITE

Your simulation uses code contributions which should be cited:
- GPU package (short-range, long-range and three-body potentials):
The log file lists these citations in BibTeX format.

CITE-CITE-CITE-CITE-CITE-CITE-CITE-CITE-CITE-CITE-CITE-CITE-CITE


--------------------------------------------------------------------------
- Using acceleration for eam:
-  with 3 proc(s) per device.
-  Horizontal vector operations: ENABLED
-  Shared memory system: No
--------------------------------------------------------------------------
Device 0: Tesla V100-SXM2-16GB, 80 CUs, 15/16 GB, 1.5 GHZ (Mixed Precision)
Device 1: Tesla V100-SXM2-16GB, 80 CUs, 1.5 GHZ (Mixed Precision)
Device 2: Tesla V100-SXM2-16GB, 80 CUs, 1.5 GHZ (Mixed Precision)
Device 3: Tesla V100-SXM2-16GB, 80 CUs, 1.5 GHZ (Mixed Precision)
Device 4: Tesla V100-SXM2-16GB, 80 CUs, 1.5 GHZ (Mixed Precision)
Device 5: Tesla V100-SXM2-16GB, 80 CUs, 1.5 GHZ (Mixed Precision)
--------------------------------------------------------------------------

Initializing Device and compiling on process 0...Done.
Initializing Devices 0-5 on core 0...Done.
Initializing Devices 0-5 on core 1...Done.
Initializing Devices 0-5 on core 2...Done.

Setting up Verlet run ...
  Unit style    : metal
  Current step  : 0
  Time step     : 0.005
Per MPI rank memory allocation (min/avg/max) = 2.62 | 2.665 | 2.687 Mbytes
Step Temp E_pair E_mol TotEng Press 
       0         1600      -113280            0   -106662.08    18703.562 
      50     781.6906   -109873.35            0   -106640.13    52273.122 
     100    801.83198    -109957.3            0   -106640.77    51322.827 
Loop time of 0.126481 on 18 procs for 100 steps with 32000 atoms

Performance: 341.554 ns/day, 0.070 hours/ns, 790.635 timesteps/s
98.3% CPU use with 18 MPI tasks x 1 OpenMP threads

MPI task timing breakdown:
Section |  min time  |  avg time  |  max time  |%varavg| %total
---------------------------------------------------------------
Pair    | 0.07942    | 0.08366    | 0.087652   |   0.7 | 66.14
Neigh   | 7.5803e-05 | 9.0561e-05 | 0.00010543 |   0.0 |  0.07
Comm    | 0.029817   | 0.032515   | 0.034761   |   0.7 | 25.71
Output  | 0.00014674 | 0.00044363 | 0.00072229 |   0.0 |  0.35
Modify  | 0.0010325  | 0.0011724  | 0.0014062  |   0.2 |  0.93
Other   |            | 0.008599   |            |       |  6.80

Nlocal:        1777.78 ave        1834 max        1687 min
Histogram: 2 0 0 1 5 2 0 1 2 5
Nghost:        3532.89 ave        3601 max        3437 min
Histogram: 2 1 0 2 1 2 2 2 4 2
Neighs:              0 ave           0 max           0 min
Histogram: 18 0 0 0 0 0 0 0 0 0

Total # of neighbors = 0
Ave neighs/atom = 0
Neighbor list builds = 13
Dangerous builds = 0


---------------------------------------------------------------------
      Device Time Info (average): 
---------------------------------------------------------------------
Data Transfer:   0.0132 s.
Neighbor copy:   0.0007 s.
Neighbor build:  0.0039 s.
Force calc:      0.0364 s.
Device Overhead: 0.0390 s.
Average split:   1.0000.
Lanes / atom:    4.
Vector width:    32.
Max Mem / Proc:  1.78 MB.
CPU Neighbor:    0.0026 s.
CPU Cast/Pack:   0.0039 s.
CPU Driver_Time: 0.0062 s.
CPU Idle_Time:   0.0147 s.
---------------------------------------------------------------------

Total wall time: 0:00:22
Intel(R) VTune(TM) Profiler 2022.2.0 collection completed successfully. Use the "aps --report /home/ubuntu/lammps/bench/aps_result_20220530" command to generate textual and HTML reports for the profiling session.
