LAMMPS (7 Jan 2022)
  using 1 OpenMP thread(s) per MPI task
Lattice spacing in x,y,z = 3.615 3.615 3.615
Created orthogonal box = (0 0 0) to (144.6 144.6 144.6)
  2 by 2 by 4 MPI processor grid
Created 256000 atoms
  using lattice units in orthogonal box = (0 0 0) to (144.6 144.6 144.6)
  create_atoms CPU = 0.005 seconds
Reading eam potential file Cu_u3.eam with DATE: 2007-06-11

CITE-CITE-CITE-CITE-CITE-CITE-CITE-CITE-CITE-CITE-CITE-CITE-CITE

Your simulation uses code contributions which should be cited:
- GPU package (short-range, long-range and three-body potentials):
The log file lists these citations in BibTeX format.

CITE-CITE-CITE-CITE-CITE-CITE-CITE-CITE-CITE-CITE-CITE-CITE-CITE


--------------------------------------------------------------------------
- Using acceleration for eam:
-  with 16 proc(s) per device.
-  Horizontal vector operations: ENABLED
-  Shared memory system: No
--------------------------------------------------------------------------
Device 0: Tesla V100-SXM2-16GB, 80 CUs, 11/16 GB, 1.5 GHZ (Mixed Precision)
--------------------------------------------------------------------------

Initializing Device and compiling on process 0...Done.
Initializing Device 0 on core 0...Done.
Initializing Device 0 on core 1...Done.
Initializing Device 0 on core 2...Done.
Initializing Device 0 on core 3...Done.
Initializing Device 0 on core 4...Done.
Initializing Device 0 on core 5...Done.
Initializing Device 0 on core 6...Done.
Initializing Device 0 on core 7...Done.
Initializing Device 0 on core 8...Done.
Initializing Device 0 on core 9...Done.
Initializing Device 0 on core 10...Done.
Initializing Device 0 on core 11...Done.
Initializing Device 0 on core 12...Done.
Initializing Device 0 on core 13...Done.
Initializing Device 0 on core 14...Done.
Initializing Device 0 on core 15...Done.

Setting up Verlet run ...
  Unit style    : metal
  Current step  : 0
  Time step     : 0.005
Per MPI rank memory allocation (min/avg/max) = 6.211 | 6.276 | 6.314 Mbytes
Step Temp E_pair E_mol TotEng Press 
       0         1600   -906239.96            0   -853295.21    18704.153 
      50    780.37024   -878942.76            0   -853119.94    52325.545 
     100    798.91517   -879560.79            0   -853124.31    51436.912 
Loop time of 0.592234 on 16 procs for 100 steps with 256000 atoms

Performance: 72.944 ns/day, 0.329 hours/ns, 168.852 timesteps/s
95.7% CPU use with 16 MPI tasks x 1 OpenMP threads

MPI task timing breakdown:
Section |  min time  |  avg time  |  max time  |%varavg| %total
---------------------------------------------------------------
Pair    | 0.3965     | 0.40803    | 0.42265    |   1.3 | 68.90
Neigh   | 0.00082333 | 0.00086876 | 0.0009663  |   0.0 |  0.15
Comm    | 0.10616    | 0.11579    | 0.12399    |   1.6 | 19.55
Output  | 0.0012332  | 0.0023933  | 0.0038551  |   1.6 |  0.40
Modify  | 0.0089055  | 0.0095215  | 0.01033    |   0.4 |  1.61
Other   |            | 0.05563    |            |       |  9.39

Nlocal:          16000 ave       16109 max       15846 min
Histogram: 1 1 0 1 3 3 1 3 1 2
Nghost:        13820.3 ave       13975 max       13711 min
Histogram: 2 0 4 2 2 3 1 0 1 1
Neighs:              0 ave           0 max           0 min
Histogram: 16 0 0 0 0 0 0 0 0 0

Total # of neighbors = 0
Ave neighs/atom = 0
Neighbor list builds = 15
Dangerous builds = 0


---------------------------------------------------------------------
      Device Time Info (average): 
---------------------------------------------------------------------
Data Transfer:   0.0573 s.
Neighbor copy:   0.0012 s.
Neighbor build:  0.0272 s.
Force calc:      0.1744 s.
Device Overhead: 0.2110 s.
Average split:   1.0000.
Lanes / atom:    4.
Vector width:    32.
Max Mem / Proc:  14.44 MB.
CPU Neighbor:    0.0232 s.
CPU Cast/Pack:   0.0242 s.
CPU Driver_Time: 0.0048 s.
CPU Idle_Time:   0.0999 s.
---------------------------------------------------------------------

Total wall time: 0:00:21
Intel(R) VTune(TM) Profiler 2022.2.0 collection completed successfully. Use the "aps --report /home/ubuntu/lammps/bench/aps_result_20220530" command to generate textual and HTML reports for the profiling session.
