LAMMPS (7 Jan 2022)
  using 1 OpenMP thread(s) per MPI task
Lattice spacing in x,y,z = 3.615 3.615 3.615
Created orthogonal box = (0 0 0) to (289.2 289.2 289.2)
  3 by 4 by 4 MPI processor grid
Created 2048000 atoms
  using lattice units in orthogonal box = (0 0 0) to (289.2 289.2 289.2)
  create_atoms CPU = 0.010 seconds
Reading eam potential file Cu_u3.eam with DATE: 2007-06-11

CITE-CITE-CITE-CITE-CITE-CITE-CITE-CITE-CITE-CITE-CITE-CITE-CITE

Your simulation uses code contributions which should be cited:
- GPU package (short-range, long-range and three-body potentials):
The log file lists these citations in BibTeX format.

CITE-CITE-CITE-CITE-CITE-CITE-CITE-CITE-CITE-CITE-CITE-CITE-CITE


--------------------------------------------------------------------------
- Using acceleration for eam:
-  with 24 proc(s) per device.
-  Horizontal vector operations: ENABLED
-  Shared memory system: No
--------------------------------------------------------------------------
Device 0: Tesla V100-SXM2-16GB, 80 CUs, 8.7/16 GB, 1.5 GHZ (Single Precision)
Device 1: Tesla V100-SXM2-16GB, 80 CUs, 1.5 GHZ (Single Precision)
--------------------------------------------------------------------------

Initializing Device and compiling on process 0...Done.
Initializing Devices 0-1 on core 0...Done.
Initializing Devices 0-1 on core 1...Done.
Initializing Devices 0-1 on core 2...Done.
Initializing Devices 0-1 on core 3...Done.
Initializing Devices 0-1 on core 4...Done.
Initializing Devices 0-1 on core 5...Done.
Initializing Devices 0-1 on core 6...Done.
Initializing Devices 0-1 on core 7...Done.
Initializing Devices 0-1 on core 8...Done.
Initializing Devices 0-1 on core 9...Done.
Initializing Devices 0-1 on core 10...Done.
Initializing Devices 0-1 on core 11...Done.
Initializing Devices 0-1 on core 12...Done.
Initializing Devices 0-1 on core 13...Done.
Initializing Devices 0-1 on core 14...Done.
Initializing Devices 0-1 on core 15...Done.
Initializing Devices 0-1 on core 16...Done.
Initializing Devices 0-1 on core 17...Done.
Initializing Devices 0-1 on core 18...Done.
Initializing Devices 0-1 on core 19...Done.
Initializing Devices 0-1 on core 20...Done.
Initializing Devices 0-1 on core 21...Done.
Initializing Devices 0-1 on core 22...Done.
Initializing Devices 0-1 on core 23...Done.

Setting up Verlet run ...
  Unit style    : metal
  Current step  : 0
  Time step     : 0.005
Per MPI rank memory allocation (min/avg/max) = 12.06 | 13.78 | 14.73 Mbytes
Step Temp E_pair E_mol TotEng Press 
       0         1600   -7249919.8            0   -6826360.4    18704.257 
      50    780.81545   -7031660.9            0   -6824959.8    52291.389 
     100    798.21784   -7036295.2            0   -6824987.3    51479.495 
Loop time of 1.47908 on 48 procs for 100 steps with 2048000 atoms

Performance: 29.207 ns/day, 0.822 hours/ns, 67.610 timesteps/s
93.2% CPU use with 48 MPI tasks x 1 OpenMP threads

MPI task timing breakdown:
Section |  min time  |  avg time  |  max time  |%varavg| %total
---------------------------------------------------------------
Pair    | 0.93844    | 0.97135    | 1.0245     |   2.1 | 65.67
Neigh   | 0.0097906  | 0.01079    | 0.011798   |   0.4 |  0.73
Comm    | 0.28119    | 0.30845    | 0.33347    |   2.3 | 20.85
Output  | 0.0028173  | 0.0093265  | 0.015579   |   3.0 |  0.63
Modify  | 0.042021   | 0.043525   | 0.045333   |   0.4 |  2.94
Other   |            | 0.1356     |            |       |  9.17

Nlocal:        42666.7 ave       42982 max       42305 min
Histogram: 4 8 3 1 2 5 4 12 5 4
Nghost:        23453.6 ave       23637 max       23285 min
Histogram: 4 2 5 6 9 10 4 2 3 3
Neighs:              0 ave           0 max           0 min
Histogram: 48 0 0 0 0 0 0 0 0 0

Total # of neighbors = 0
Ave neighs/atom = 0
Neighbor list builds = 15
Dangerous builds = 0


---------------------------------------------------------------------
      Device Time Info (average): 
---------------------------------------------------------------------
Data Transfer:   0.2173 s.
Neighbor copy:   0.0015 s.
Neighbor build:  0.0568 s.
Force calc:      0.3237 s.
Device Overhead: 0.3072 s.
Average split:   1.0000.
Lanes / atom:    4.
Vector width:    32.
Max Mem / Proc:  36.51 MB.
CPU Neighbor:    0.0822 s.
CPU Cast/Pack:   0.0947 s.
CPU Driver_Time: 0.0075 s.
CPU Idle_Time:   0.1691 s.
---------------------------------------------------------------------

Total wall time: 0:01:04
Intel(R) VTune(TM) Profiler 2022.2.0 collection completed successfully. Use the "aps --report /home/ubuntu/lammps/bench/aps_result_20220609" command to generate textual and HTML reports for the profiling session.
