LAMMPS (7 Jan 2022)
  using 1 OpenMP thread(s) per MPI task
New timer settings: style=full  mode=nosync  timeout=off
Lattice spacing in x,y,z = 3.615 3.615 3.615
Created orthogonal box = (0 0 0) to (72.3 72.3 72.3)
  2 by 2 by 3 MPI processor grid
Created 32000 atoms
  using lattice units in orthogonal box = (0 0 0) to (72.3 72.3 72.3)
  create_atoms CPU = 0.001 seconds
Reading eam potential file Cu_u3.eam with DATE: 2007-06-11

CITE-CITE-CITE-CITE-CITE-CITE-CITE-CITE-CITE-CITE-CITE-CITE-CITE

Your simulation uses code contributions which should be cited:
- GPU package (short-range, long-range and three-body potentials):
The log file lists these citations in BibTeX format.

CITE-CITE-CITE-CITE-CITE-CITE-CITE-CITE-CITE-CITE-CITE-CITE-CITE


--------------------------------------------------------------------------
- Using acceleration for eam:
-  with 3 proc(s) per device.
-  Horizontal vector operations: ENABLED
-  Shared memory system: No
--------------------------------------------------------------------------
Device 0: Tesla V100-SXM2-16GB, 80 CUs, 15/16 GB, 1.5 GHZ (Mixed Precision)
Device 1: Tesla V100-SXM2-16GB, 80 CUs, 1.5 GHZ (Mixed Precision)
Device 2: Tesla V100-SXM2-16GB, 80 CUs, 1.5 GHZ (Mixed Precision)
Device 3: Tesla V100-SXM2-16GB, 80 CUs, 1.5 GHZ (Mixed Precision)
--------------------------------------------------------------------------

Initializing Device and compiling on process 0...Done.
Initializing Devices 0-3 on core 0...Done.
Initializing Devices 0-3 on core 1...Done.
Initializing Devices 0-3 on core 2...Done.

Setting up Verlet run ...
  Unit style    : metal
  Current step  : 0
  Time step     : 0.005
Per MPI rank memory allocation (min/avg/max) = 2.757 | 2.779 | 2.793 Mbytes
Step Temp E_pair E_mol TotEng Press 
       0         1600      -113280            0   -106662.08    18703.562 
      50     781.6906   -109873.35            0   -106640.13    52273.122 
     100    801.83198    -109957.3            0   -106640.77    51322.827 
Loop time of 0.127839 on 12 procs for 100 steps with 32000 atoms

Performance: 337.924 ns/day, 0.071 hours/ns, 782.232 timesteps/s
92.3% CPU use with 12 MPI tasks x 1 OpenMP threads

MPI task timing breakdown:
Section |  min time  |  avg time  |  max time  |%varavg|  %CPU | %total
-----------------------------------------------------------------------
Pair    | 0.081748   | 0.085837   | 0.09024    |   1.0 |  92.4 | 67.14
Neigh   | 0.00010075 | 0.00011402 | 0.00014167 |   0.0 |  98.6 |  0.09
Comm    | 0.027207   | 0.03045    | 0.032918   |   1.0 |  91.9 | 23.82
Output  | 0.00011231 | 0.0004448  | 0.0006419  |   0.0 |  96.1 |  0.35
Modify  | 0.0013091  | 0.0013925  | 0.0014705  |   0.1 |  91.2 |  1.09
Other   |            | 0.009601   |            |       |       |  7.51

Nlocal:        2666.67 ave        2714 max        2590 min
Histogram: 2 2 0 0 0 0 1 1 1 5
Nghost:         4558.5 ave        4619 max        4480 min
Histogram: 3 0 0 1 0 0 1 5 1 1
Neighs:              0 ave           0 max           0 min
Histogram: 12 0 0 0 0 0 0 0 0 0

Total # of neighbors = 0
Ave neighs/atom = 0
Neighbor list builds = 13
Dangerous builds = 0


---------------------------------------------------------------------
      Device Time Info (average): 
---------------------------------------------------------------------
Data Transfer:   0.0135 s.
Neighbor copy:   0.0003 s.
Neighbor build:  0.0036 s.
Force calc:      0.0347 s.
Device Overhead: 0.0365 s.
Average split:   1.0000.
Lanes / atom:    4.
Vector width:    32.
Max Mem / Proc:  2.51 MB.
CPU Neighbor:    0.0082 s.
CPU Cast/Pack:   0.0049 s.
CPU Driver_Time: 0.0026 s.
CPU Idle_Time:   0.0172 s.
---------------------------------------------------------------------

Total wall time: 0:00:06
Intel(R) VTune(TM) Profiler 2022.2.0 collection completed successfully. Use the "aps --report /home/ubuntu/lammps/bench/aps_result_20220420" command to generate textual and HTML reports for the profiling session.
