LAMMPS (7 Jan 2022)
  using 1 OpenMP thread(s) per MPI task
Lattice spacing in x,y,z = 1.6795962 1.6795962 1.6795962
Created orthogonal box = (0 0 0) to (100.77577 100.77577 100.77577)
  3 by 3 by 4 MPI processor grid
Created 864000 atoms
  using lattice units in orthogonal box = (0 0 0) to (100.77577 100.77577 100.77577)
  create_atoms CPU = 0.007 seconds

CITE-CITE-CITE-CITE-CITE-CITE-CITE-CITE-CITE-CITE-CITE-CITE-CITE

Your simulation uses code contributions which should be cited:
- GPU package (short-range, long-range and three-body potentials):
The log file lists these citations in BibTeX format.

CITE-CITE-CITE-CITE-CITE-CITE-CITE-CITE-CITE-CITE-CITE-CITE-CITE


--------------------------------------------------------------------------
- Using acceleration for lj/cut:
-  with 9 proc(s) per device.
-  Horizontal vector operations: ENABLED
-  Shared memory system: No
--------------------------------------------------------------------------
Device 0: Tesla V100-SXM2-16GB, 80 CUs, 13/16 GB, 1.5 GHZ (Single Precision)
Device 1: Tesla V100-SXM2-16GB, 80 CUs, 1.5 GHZ (Single Precision)
Device 2: Tesla V100-SXM2-16GB, 80 CUs, 1.5 GHZ (Single Precision)
Device 3: Tesla V100-SXM2-16GB, 80 CUs, 1.5 GHZ (Single Precision)
--------------------------------------------------------------------------

Initializing Device and compiling on process 0...Done.
Initializing Devices 0-3 on core 0...Done.
Initializing Devices 0-3 on core 1...Done.
Initializing Devices 0-3 on core 2...Done.
Initializing Devices 0-3 on core 3...Done.
Initializing Devices 0-3 on core 4...Done.
Initializing Devices 0-3 on core 5...Done.
Initializing Devices 0-3 on core 6...Done.
Initializing Devices 0-3 on core 7...Done.
Initializing Devices 0-3 on core 8...Done.

  generated 0 of 0 mixed pair_coeff terms from geometric mixing rule
Setting up Verlet run ...
  Unit style    : lj
  Current step  : 0
  Time step     : 0.005
Per MPI rank memory allocation (min/avg/max) = 7.441 | 7.441 | 7.441 Mbytes
Step Temp E_pair E_mol TotEng Press 
       0         1.44   -6.7733676            0   -4.6133701   -5.0196715 
     100   0.75926562   -5.7611846            0   -4.6222875    0.1924318 
Loop time of 0.416024 on 36 procs for 100 steps with 864000 atoms

Performance: 103840.207 tau/day, 240.371 timesteps/s
97.5% CPU use with 36 MPI tasks x 1 OpenMP threads

MPI task timing breakdown:
Section |  min time  |  avg time  |  max time  |%varavg| %total
---------------------------------------------------------------
Pair    | 0.19017    | 0.20933    | 0.24842    |   2.2 | 50.32
Neigh   | 3.857e-06  | 5.8614e-06 | 1.089e-05  |   0.0 |  0.00
Comm    | 0.13152    | 0.1703     | 0.1885     |   2.4 | 40.94
Output  | 0.00025989 | 0.0016277  | 0.0030792  |   1.8 |  0.39
Modify  | 0.020888   | 0.021451   | 0.022505   |   0.3 |  5.16
Other   |            | 0.01331    |            |       |  3.20

Nlocal:          24000 ave       24061 max       23931 min
Histogram: 3 2 3 5 2 5 5 4 3 4
Nghost:        16634.4 ave       16717 max       16573 min
Histogram: 4 4 5 3 6 7 1 4 1 1
Neighs:              0 ave           0 max           0 min
Histogram: 36 0 0 0 0 0 0 0 0 0

Total # of neighbors = 0
Ave neighs/atom = 0
Neighbor list builds = 5
Dangerous builds not checked


---------------------------------------------------------------------
      Device Time Info (average): 
---------------------------------------------------------------------
Data Transfer:   0.1077 s.
Neighbor copy:   0.0006 s.
Neighbor build:  0.0050 s.
Force calc:      0.0800 s.
Device Overhead: 0.1015 s.
Average split:   1.0000.
Lanes / atom:    4.
Vector width:    32.
Max Mem / Proc:  19.30 MB.
CPU Neighbor:    0.0328 s.
CPU Cast/Pack:   0.0414 s.
CPU Driver_Time: 0.0051 s.
CPU Idle_Time:   0.1489 s.
---------------------------------------------------------------------

Total wall time: 0:00:46
Intel(R) VTune(TM) Profiler 2022.2.0 collection completed successfully. Use the "aps --report /home/ubuntu/lammps/bench/aps_result_20220609" command to generate textual and HTML reports for the profiling session.
