LAMMPS (7 Jan 2022)
  using 1 OpenMP thread(s) per MPI task
New timer settings: style=full  mode=sync  timeout=off
Lattice spacing in x,y,z = 1.6795962 1.6795962 1.6795962
Created orthogonal box = (0 0 0) to (67.183848 67.183848 67.183848)
  2 by 4 by 4 MPI processor grid
Created 256000 atoms
  using lattice units in orthogonal box = (0 0 0) to (67.183848 67.183848 67.183848)
  create_atoms CPU = 0.002 seconds

CITE-CITE-CITE-CITE-CITE-CITE-CITE-CITE-CITE-CITE-CITE-CITE-CITE

Your simulation uses code contributions which should be cited:
- GPU package (short-range, long-range and three-body potentials):
The log file lists these citations in BibTeX format.

CITE-CITE-CITE-CITE-CITE-CITE-CITE-CITE-CITE-CITE-CITE-CITE-CITE


--------------------------------------------------------------------------
- Using acceleration for lj/cut:
-  with 8 proc(s) per device.
-  Horizontal vector operations: ENABLED
-  Shared memory system: No
--------------------------------------------------------------------------
Device 0: Tesla V100-SXM2-16GB, 80 CUs, 13/16 GB, 1.5 GHZ (Mixed Precision)
Device 1: Tesla V100-SXM2-16GB, 80 CUs, 1.5 GHZ (Mixed Precision)
Device 2: Tesla V100-SXM2-16GB, 80 CUs, 1.5 GHZ (Mixed Precision)
Device 3: Tesla V100-SXM2-16GB, 80 CUs, 1.5 GHZ (Mixed Precision)
--------------------------------------------------------------------------

Initializing Device and compiling on process 0...Done.
Initializing Devices 0-3 on core 0...Done.
Initializing Devices 0-3 on core 1...Done.
Initializing Devices 0-3 on core 2...Done.
Initializing Devices 0-3 on core 3...Done.
Initializing Devices 0-3 on core 4...Done.
Initializing Devices 0-3 on core 5...Done.
Initializing Devices 0-3 on core 6...Done.
Initializing Devices 0-3 on core 7...Done.

  generated 0 of 0 mixed pair_coeff terms from geometric mixing rule
Setting up Verlet run ...
  Unit style    : lj
  Current step  : 0
  Time step     : 0.005
Per MPI rank memory allocation (min/avg/max) = 4.351 | 4.433 | 4.477 Mbytes
Step Temp E_pair E_mol TotEng Press 
       0         1.44   -6.7733683            0   -4.6133768   -5.0196737 
   10000   0.69594345   -5.6651469            0   -4.6212358   0.75429842 
Loop time of 20.4274 on 32 procs for 10000 steps with 256000 atoms

Performance: 211480.695 tau/day, 489.539 timesteps/s
98.5% CPU use with 32 MPI tasks x 1 OpenMP threads

MPI task timing breakdown:
Section |  min time  |  avg time  |  max time  |%varavg|  %CPU | %total
-----------------------------------------------------------------------
Pair    | 9.3428     | 10.532     | 11.543     |  25.1 |  98.6 | 51.56
Neigh   | 0.00068401 | 0.00077054 | 0.00084002 |   0.0 | 100.0 |  0.00
Comm    | 2.3255     | 2.3714     | 2.4181     |   1.3 |  98.3 | 11.61
Output  | 0.00012895 | 0.00013051 | 0.00015769 |   0.0 | 100.0 |  0.00
Modify  | 0.31254    | 0.34404    | 0.39483    |   4.1 |  97.9 |  1.68
Sync    | 5.8379     | 6.8827     | 8.003      |  29.9 |  98.4 | 33.69
Other   |            | 7.179      |            |       |       | 35.14

Nlocal:           8000 ave        8039 max        7941 min
Histogram: 1 0 1 7 2 5 3 4 6 3
Nghost:         8601.5 ave        8683 max        8519 min
Histogram: 2 0 2 7 5 7 3 4 1 1
Neighs:              0 ave           0 max           0 min
Histogram: 32 0 0 0 0 0 0 0 0 0

Total # of neighbors = 0
Ave neighs/atom = 0
Neighbor list builds = 500
Dangerous builds not checked


---------------------------------------------------------------------
      Device Time Info (average): 
---------------------------------------------------------------------
Data Transfer:   3.9928 s.
Neighbor copy:   0.0191 s.
Neighbor build:  0.3840 s.
Force calc:      4.5571 s.
Device Overhead: 8.5704 s.
Average split:   1.0000.
Lanes / atom:    4.
Vector width:    32.
Max Mem / Proc:  11.70 MB.
CPU Neighbor:    0.3091 s.
CPU Cast/Pack:   1.1796 s.
CPU Driver_Time: 0.2273 s.
CPU Idle_Time:   8.0025 s.
---------------------------------------------------------------------

Total wall time: 0:00:38
Intel(R) VTune(TM) Profiler 2022.1.0 collection completed successfully. Use the "aps --report /home/ubuntu/lammps/bench/aps_result_20220414" command to generate textual and HTML reports for the profiling session.
