LAMMPS (7 Jan 2022)
  using 1 OpenMP thread(s) per MPI task
Lattice spacing in x,y,z = 1.6795962 1.6795962 1.6795962
Created orthogonal box = (0 0 0) to (67.183848 67.183848 67.183848)
  2 by 4 by 4 MPI processor grid
Created 256000 atoms
  using lattice units in orthogonal box = (0 0 0) to (67.183848 67.183848 67.183848)
  create_atoms CPU = 0.003 seconds

CITE-CITE-CITE-CITE-CITE-CITE-CITE-CITE-CITE-CITE-CITE-CITE-CITE

Your simulation uses code contributions which should be cited:
- GPU package (short-range, long-range and three-body potentials):
The log file lists these citations in BibTeX format.

CITE-CITE-CITE-CITE-CITE-CITE-CITE-CITE-CITE-CITE-CITE-CITE-CITE


--------------------------------------------------------------------------
- Using acceleration for lj/cut:
-  with 8 proc(s) per device.
-  Horizontal vector operations: ENABLED
-  Shared memory system: No
--------------------------------------------------------------------------
Device 0: Tesla V100-SXM2-16GB, 80 CUs, 13/16 GB, 1.5 GHZ (Mixed Precision)
Device 1: Tesla V100-SXM2-16GB, 80 CUs, 1.5 GHZ (Mixed Precision)
Device 2: Tesla V100-SXM2-16GB, 80 CUs, 1.5 GHZ (Mixed Precision)
Device 3: Tesla V100-SXM2-16GB, 80 CUs, 1.5 GHZ (Mixed Precision)
--------------------------------------------------------------------------

Initializing Device and compiling on process 0...Done.
Initializing Devices 0-3 on core 0...Done.
Initializing Devices 0-3 on core 1...Done.
Initializing Devices 0-3 on core 2...Done.
Initializing Devices 0-3 on core 3...Done.
Initializing Devices 0-3 on core 4...Done.
Initializing Devices 0-3 on core 5...Done.
Initializing Devices 0-3 on core 6...Done.
Initializing Devices 0-3 on core 7...Done.

  generated 0 of 0 mixed pair_coeff terms from geometric mixing rule
Setting up Verlet run ...
  Unit style    : lj
  Current step  : 0
  Time step     : 0.005
Per MPI rank memory allocation (min/avg/max) = 4.351 | 4.433 | 4.477 Mbytes
Step Temp E_pair E_mol TotEng Press 
       0         1.44   -6.7733683            0   -4.6133768   -5.0196737 
     100   0.75865617    -5.760326            0   -4.6223462   0.19586079 
Loop time of 0.204158 on 32 procs for 100 steps with 256000 atoms

Performance: 211600.329 tau/day, 489.816 timesteps/s
97.5% CPU use with 32 MPI tasks x 1 OpenMP threads

MPI task timing breakdown:
Section |  min time  |  avg time  |  max time  |%varavg| %total
---------------------------------------------------------------
Pair    | 0.047624   | 0.073104   | 0.11487    |   5.0 | 35.81
Neigh   | 2.499e-06  | 3.5324e-06 | 4.685e-06  |   0.0 |  0.00
Comm    | 0.077181   | 0.1216     | 0.14763    |   4.1 | 59.56
Output  | 0.00010414 | 0.00090227 | 0.0013848  |   0.0 |  0.44
Modify  | 0.0042542  | 0.0047723  | 0.0059171  |   0.6 |  2.34
Other   |            | 0.003773   |            |       |  1.85

Nlocal:           8000 ave        8078 max        7951 min
Histogram: 4 6 5 3 4 2 4 2 1 1
Nghost:        8995.78 ave        9049 max        8932 min
Histogram: 2 2 4 2 5 2 3 5 4 3
Neighs:              0 ave           0 max           0 min
Histogram: 32 0 0 0 0 0 0 0 0 0

Total # of neighbors = 0
Ave neighs/atom = 0
Neighbor list builds = 5
Dangerous builds not checked


---------------------------------------------------------------------
      Device Time Info (average): 
---------------------------------------------------------------------
Data Transfer:   0.0331 s.
Neighbor copy:   0.0005 s.
Neighbor build:  0.0041 s.
Force calc:      0.0398 s.
Device Overhead: 0.0906 s.
Average split:   1.0000.
Lanes / atom:    4.
Vector width:    32.
Max Mem / Proc:  11.70 MB.
CPU Neighbor:    0.0272 s.
CPU Cast/Pack:   0.0154 s.
CPU Driver_Time: 0.0049 s.
CPU Idle_Time:   0.0438 s.
---------------------------------------------------------------------

Total wall time: 0:00:43
Intel(R) VTune(TM) Profiler 2022.2.0 collection completed successfully. Use the "aps --report /home/ubuntu/lammps/bench/aps_result_20220530" command to generate textual and HTML reports for the profiling session.
