LAMMPS (7 Jan 2022)
  using 1 OpenMP thread(s) per MPI task
Lattice spacing in x,y,z = 1.6795962 1.6795962 1.6795962
Created orthogonal box = (0 0 0) to (100.77577 100.77577 100.77577)
  3 by 4 by 4 MPI processor grid
Created 864000 atoms
  using lattice units in orthogonal box = (0 0 0) to (100.77577 100.77577 100.77577)
  create_atoms CPU = 0.006 seconds

CITE-CITE-CITE-CITE-CITE-CITE-CITE-CITE-CITE-CITE-CITE-CITE-CITE

Your simulation uses code contributions which should be cited:
- GPU package (short-range, long-range and three-body potentials):
The log file lists these citations in BibTeX format.

CITE-CITE-CITE-CITE-CITE-CITE-CITE-CITE-CITE-CITE-CITE-CITE-CITE


--------------------------------------------------------------------------
- Using acceleration for lj/cut:
-  with 8 proc(s) per device.
-  Horizontal vector operations: ENABLED
-  Shared memory system: No
--------------------------------------------------------------------------
Device 0: Tesla V100-SXM2-16GB, 80 CUs, 13/16 GB, 1.5 GHZ (Double Precision)
Device 1: Tesla V100-SXM2-16GB, 80 CUs, 1.5 GHZ (Double Precision)
Device 2: Tesla V100-SXM2-16GB, 80 CUs, 1.5 GHZ (Double Precision)
Device 3: Tesla V100-SXM2-16GB, 80 CUs, 1.5 GHZ (Double Precision)
Device 4: Tesla V100-SXM2-16GB, 80 CUs, 1.5 GHZ (Double Precision)
Device 5: Tesla V100-SXM2-16GB, 80 CUs, 1.5 GHZ (Double Precision)
--------------------------------------------------------------------------

Initializing Device and compiling on process 0...Done.
Initializing Devices 0-5 on core 0...Done.
Initializing Devices 0-5 on core 1...Done.
Initializing Devices 0-5 on core 2...Done.
Initializing Devices 0-5 on core 3...Done.
Initializing Devices 0-5 on core 4...Done.
Initializing Devices 0-5 on core 5...Done.
Initializing Devices 0-5 on core 6...Done.
Initializing Devices 0-5 on core 7...Done.

  generated 0 of 0 mixed pair_coeff terms from geometric mixing rule
Setting up Verlet run ...
  Unit style    : lj
  Current step  : 0
  Time step     : 0.005
Per MPI rank memory allocation (min/avg/max) = 5.721 | 5.721 | 5.721 Mbytes
Step Temp E_pair E_mol TotEng Press 
       0         1.44   -6.7733681            0   -4.6133706   -5.0196707 
     100   0.75926567   -5.7611846            0   -4.6222874   0.19243178 
Loop time of 0.4581 on 48 procs for 100 steps with 864000 atoms

Performance: 94302.619 tau/day, 218.293 timesteps/s
95.3% CPU use with 48 MPI tasks x 1 OpenMP threads

MPI task timing breakdown:
Section |  min time  |  avg time  |  max time  |%varavg| %total
---------------------------------------------------------------
Pair    | 0.13643    | 0.20896    | 0.27707    |  10.2 | 45.61
Neigh   | 3.882e-06  | 6.4645e-06 | 1.6488e-05 |   0.0 |  0.00
Comm    | 0.15163    | 0.21943    | 0.29147    |   9.9 | 47.90
Output  | 0.00025317 | 0.0017316  | 0.0032666  |   2.0 |  0.38
Modify  | 0.014619   | 0.015262   | 0.0165     |   0.3 |  3.33
Other   |            | 0.01271    |            |       |  2.77

Nlocal:          18000 ave       18124 max       17892 min
Histogram: 1 1 4 13 7 14 4 3 0 1
Nghost:        13973.8 ave       14094 max       13861 min
Histogram: 1 0 6 11 7 12 6 3 1 1
Neighs:              0 ave           0 max           0 min
Histogram: 48 0 0 0 0 0 0 0 0 0

Total # of neighbors = 0
Ave neighs/atom = 0
Neighbor list builds = 5
Dangerous builds not checked


---------------------------------------------------------------------
      Device Time Info (average): 
---------------------------------------------------------------------
Data Transfer:   0.1235 s.
Neighbor copy:   0.0007 s.
Neighbor build:  0.0040 s.
Force calc:      0.0522 s.
Device Overhead: 0.0915 s.
Average split:   1.0000.
Lanes / atom:    4.
Vector width:    32.
Max Mem / Proc:  15.88 MB.
CPU Neighbor:    0.0404 s.
CPU Cast/Pack:   0.0531 s.
CPU Driver_Time: 0.0057 s.
CPU Idle_Time:   0.1372 s.
---------------------------------------------------------------------

Total wall time: 0:01:02
Intel(R) VTune(TM) Profiler 2022.2.0 collection completed successfully. Use the "aps --report /home/ubuntu/lammps/bench/aps_result_20220610" command to generate textual and HTML reports for the profiling session.
