LAMMPS (7 Jan 2022)
  using 1 OpenMP thread(s) per MPI task
Lattice spacing in x,y,z = 1.6795962 1.6795962 1.6795962
Created orthogonal box = (0 0 0) to (134.3677 134.3677 134.3677)
  3 by 4 by 4 MPI processor grid
Created 2048000 atoms
  using lattice units in orthogonal box = (0 0 0) to (134.3677 134.3677 134.3677)
  create_atoms CPU = 0.013 seconds

CITE-CITE-CITE-CITE-CITE-CITE-CITE-CITE-CITE-CITE-CITE-CITE-CITE

Your simulation uses code contributions which should be cited:
- GPU package (short-range, long-range and three-body potentials):
The log file lists these citations in BibTeX format.

CITE-CITE-CITE-CITE-CITE-CITE-CITE-CITE-CITE-CITE-CITE-CITE-CITE


--------------------------------------------------------------------------
- Using acceleration for lj/cut:
-  with 6 proc(s) per device.
-  Horizontal vector operations: ENABLED
-  Shared memory system: No
--------------------------------------------------------------------------
Device 0: Tesla V100-SXM2-16GB, 80 CUs, 14/16 GB, 1.5 GHZ (Mixed Precision)
Device 1: Tesla V100-SXM2-16GB, 80 CUs, 1.5 GHZ (Mixed Precision)
Device 2: Tesla V100-SXM2-16GB, 80 CUs, 1.5 GHZ (Mixed Precision)
Device 3: Tesla V100-SXM2-16GB, 80 CUs, 1.5 GHZ (Mixed Precision)
Device 4: Tesla V100-SXM2-16GB, 80 CUs, 1.5 GHZ (Mixed Precision)
Device 5: Tesla V100-SXM2-16GB, 80 CUs, 1.5 GHZ (Mixed Precision)
Device 6: Tesla V100-SXM2-16GB, 80 CUs, 1.5 GHZ (Mixed Precision)
Device 7: Tesla V100-SXM2-16GB, 80 CUs, 1.5 GHZ (Mixed Precision)
--------------------------------------------------------------------------

Initializing Device and compiling on process 0...Done.
Initializing Devices 0-7 on core 0...Done.
Initializing Devices 0-7 on core 1...Done.
Initializing Devices 0-7 on core 2...Done.
Initializing Devices 0-7 on core 3...Done.
Initializing Devices 0-7 on core 4...Done.
Initializing Devices 0-7 on core 5...Done.

  generated 0 of 0 mixed pair_coeff terms from geometric mixing rule
Setting up Verlet run ...
  Unit style    : lj
  Current step  : 0
  Time step     : 0.005
Per MPI rank memory allocation (min/avg/max) = 11.81 | 12.04 | 12.23 Mbytes
Step Temp E_pair E_mol TotEng Press 
       0         1.44   -6.7733684            0   -4.6133694   -5.0196695 
     100   0.75921979   -5.7611316            0   -4.6223025   0.19208803 
Loop time of 0.677015 on 48 procs for 100 steps with 2048000 atoms

Performance: 63809.484 tau/day, 147.707 timesteps/s
96.7% CPU use with 48 MPI tasks x 1 OpenMP threads

MPI task timing breakdown:
Section |  min time  |  avg time  |  max time  |%varavg| %total
---------------------------------------------------------------
Pair    | 0.26101    | 0.29037    | 0.33039    |   3.3 | 42.89
Neigh   | 4.905e-06  | 7.1477e-06 | 1.3916e-05 |   0.0 |  0.00
Comm    | 0.25023    | 0.29008    | 0.31953    |   3.4 | 42.85
Output  | 0.00057613 | 0.0020628  | 0.0036712  |   2.0 |  0.30
Modify  | 0.049735   | 0.053397   | 0.056893   |   0.6 |  7.89
Other   |            | 0.0411     |            |       |  6.07

Nlocal:        42666.7 ave       42903 max       42367 min
Histogram: 4 7 1 4 0 3 8 10 10 1
Nghost:        23379.4 ave       23682 max       23147 min
Histogram: 3 9 10 8 2 0 1 7 2 6
Neighs:              0 ave           0 max           0 min
Histogram: 48 0 0 0 0 0 0 0 0 0

Total # of neighbors = 0
Ave neighs/atom = 0
Neighbor list builds = 5
Dangerous builds not checked


---------------------------------------------------------------------
      Device Time Info (average): 
---------------------------------------------------------------------
Data Transfer:   0.1724 s.
Neighbor copy:   0.0009 s.
Neighbor build:  0.0073 s.
Force calc:      0.0374 s.
Device Overhead: 0.0720 s.
Average split:   1.0000.
Lanes / atom:    4.
Vector width:    32.
Max Mem / Proc:  38.35 MB.
CPU Neighbor:    0.0520 s.
CPU Cast/Pack:   0.1246 s.
CPU Driver_Time: 0.0047 s.
CPU Idle_Time:   0.1393 s.
---------------------------------------------------------------------

Total wall time: 0:01:06
Intel(R) VTune(TM) Profiler 2022.2.0 collection completed successfully. Use the "aps --report /home/ubuntu/lammps/bench/aps_result_20220530" command to generate textual and HTML reports for the profiling session.
