LAMMPS (7 Jan 2022)
  using 1 OpenMP thread(s) per MPI task
New timer settings: style=full  mode=nosync  timeout=off
Lattice spacing in x,y,z = 1.6795962 1.6795962 1.6795962
Created orthogonal box = (0 0 0) to (100.77577 100.77577 100.77577)
  3 by 3 by 4 MPI processor grid
Created 864000 atoms
  using lattice units in orthogonal box = (0 0 0) to (100.77577 100.77577 100.77577)
  create_atoms CPU = 0.005 seconds

CITE-CITE-CITE-CITE-CITE-CITE-CITE-CITE-CITE-CITE-CITE-CITE-CITE

Your simulation uses code contributions which should be cited:
- GPU package (short-range, long-range and three-body potentials):
The log file lists these citations in BibTeX format.

CITE-CITE-CITE-CITE-CITE-CITE-CITE-CITE-CITE-CITE-CITE-CITE-CITE


--------------------------------------------------------------------------
- Using acceleration for lj/cut:
-  with 18 proc(s) per device.
-  Horizontal vector operations: ENABLED
-  Shared memory system: No
--------------------------------------------------------------------------
Device 0: Tesla V100-SXM2-16GB, 80 CUs, 10/16 GB, 1.5 GHZ (Mixed Precision)
Device 1: Tesla V100-SXM2-16GB, 80 CUs, 1.5 GHZ (Mixed Precision)
--------------------------------------------------------------------------

Initializing Device and compiling on process 0...Done.
Initializing Devices 0-1 on core 0...Done.
Initializing Devices 0-1 on core 1...Done.
Initializing Devices 0-1 on core 2...Done.
Initializing Devices 0-1 on core 3...Done.
Initializing Devices 0-1 on core 4...Done.
Initializing Devices 0-1 on core 5...Done.
Initializing Devices 0-1 on core 6...Done.
Initializing Devices 0-1 on core 7...Done.
Initializing Devices 0-1 on core 8...Done.
Initializing Devices 0-1 on core 9...Done.
Initializing Devices 0-1 on core 10...Done.
Initializing Devices 0-1 on core 11...Done.
Initializing Devices 0-1 on core 12...Done.
Initializing Devices 0-1 on core 13...Done.
Initializing Devices 0-1 on core 14...Done.
Initializing Devices 0-1 on core 15...Done.
Initializing Devices 0-1 on core 16...Done.
Initializing Devices 0-1 on core 17...Done.

  generated 0 of 0 mixed pair_coeff terms from geometric mixing rule
Setting up Verlet run ...
  Unit style    : lj
  Current step  : 0
  Time step     : 0.005
Per MPI rank memory allocation (min/avg/max) = 7.441 | 7.441 | 7.441 Mbytes
Step Temp E_pair E_mol TotEng Press 
       0         1.44   -6.7733675            0     -4.61337   -5.0196713 
     100   0.75926563   -5.7611848            0   -4.6222876   0.19243147 
Loop time of 0.500637 on 36 procs for 100 steps with 864000 atoms

Performance: 86290.098 tau/day, 199.746 timesteps/s
92.4% CPU use with 36 MPI tasks x 1 OpenMP threads

MPI task timing breakdown:
Section |  min time  |  avg time  |  max time  |%varavg|  %CPU | %total
-----------------------------------------------------------------------
Pair    | 0.21708    | 0.24052    | 0.26634    |   2.3 |  95.5 | 48.04
Neigh   | 7.706e-06  | 1.0015e-05 | 1.6368e-05 |   0.0 | 100.0 |  0.00
Comm    | 0.19736    | 0.2239     | 0.24667    |   2.4 |  88.8 | 44.72
Output  | 0.00023501 | 0.0026429  | 0.0051768  |   2.7 |  98.4 |  0.53
Modify  | 0.019964   | 0.020723   | 0.022412   |   0.4 |  94.8 |  4.14
Other   |            | 0.01284    |            |       |       |  2.56

Nlocal:          24000 ave       24061 max       23931 min
Histogram: 3 2 3 5 2 5 5 4 3 4
Nghost:        16634.4 ave       16717 max       16573 min
Histogram: 4 4 5 3 6 7 1 4 1 1
Neighs:              0 ave           0 max           0 min
Histogram: 36 0 0 0 0 0 0 0 0 0

Total # of neighbors = 0
Ave neighs/atom = 0
Neighbor list builds = 5
Dangerous builds not checked


---------------------------------------------------------------------
      Device Time Info (average): 
---------------------------------------------------------------------
Data Transfer:   0.1018 s.
Neighbor copy:   0.0003 s.
Neighbor build:  0.0113 s.
Force calc:      0.1019 s.
Device Overhead: 0.1905 s.
Average split:   1.0000.
Lanes / atom:    4.
Vector width:    32.
Max Mem / Proc:  20.41 MB.
CPU Neighbor:    0.0376 s.
CPU Cast/Pack:   0.0392 s.
CPU Driver_Time: 0.0028 s.
CPU Idle_Time:   0.1843 s.
---------------------------------------------------------------------

Total wall time: 0:00:21
Intel(R) VTune(TM) Profiler 2022.2.0 collection completed successfully. Use the "aps --report /home/ubuntu/lammps/bench/aps_result_20220420" command to generate textual and HTML reports for the profiling session.
