LAMMPS (7 Jan 2022)
  using 1 OpenMP thread(s) per MPI task
New timer settings: style=full  mode=nosync  timeout=off
Lattice spacing in x,y,z = 1.6795962 1.6795962 1.6795962
Created orthogonal box = (0 0 0) to (67.183848 67.183848 67.183848)
  2 by 4 by 4 MPI processor grid
Created 256000 atoms
  using lattice units in orthogonal box = (0 0 0) to (67.183848 67.183848 67.183848)
  create_atoms CPU = 0.002 seconds

CITE-CITE-CITE-CITE-CITE-CITE-CITE-CITE-CITE-CITE-CITE-CITE-CITE

Your simulation uses code contributions which should be cited:
- GPU package (short-range, long-range and three-body potentials):
The log file lists these citations in BibTeX format.

CITE-CITE-CITE-CITE-CITE-CITE-CITE-CITE-CITE-CITE-CITE-CITE-CITE


--------------------------------------------------------------------------
- Using acceleration for lj/cut:
-  with 8 proc(s) per device.
-  Horizontal vector operations: ENABLED
-  Shared memory system: No
--------------------------------------------------------------------------
Device 0: Tesla V100-SXM2-16GB, 80 CUs, 13/16 GB, 1.5 GHZ (Mixed Precision)
Device 1: Tesla V100-SXM2-16GB, 80 CUs, 1.5 GHZ (Mixed Precision)
Device 2: Tesla V100-SXM2-16GB, 80 CUs, 1.5 GHZ (Mixed Precision)
Device 3: Tesla V100-SXM2-16GB, 80 CUs, 1.5 GHZ (Mixed Precision)
--------------------------------------------------------------------------

Initializing Device and compiling on process 0...Done.
Initializing Devices 0-3 on core 0...Done.
Initializing Devices 0-3 on core 1...Done.
Initializing Devices 0-3 on core 2...Done.
Initializing Devices 0-3 on core 3...Done.
Initializing Devices 0-3 on core 4...Done.
Initializing Devices 0-3 on core 5...Done.
Initializing Devices 0-3 on core 6...Done.
Initializing Devices 0-3 on core 7...Done.

  generated 0 of 0 mixed pair_coeff terms from geometric mixing rule
Setting up Verlet run ...
  Unit style    : lj
  Current step  : 0
  Time step     : 0.005
Per MPI rank memory allocation (min/avg/max) = 4.351 | 4.433 | 4.477 Mbytes
Step Temp E_pair E_mol TotEng Press 
       0         1.44   -6.7733683            0   -4.6133768   -5.0196737 
     100   0.75865617    -5.760326            0   -4.6223462   0.19586079 
Loop time of 0.180665 on 32 procs for 100 steps with 256000 atoms

Performance: 239117.189 tau/day, 553.512 timesteps/s
87.2% CPU use with 32 MPI tasks x 1 OpenMP threads

MPI task timing breakdown:
Section |  min time  |  avg time  |  max time  |%varavg|  %CPU | %total
-----------------------------------------------------------------------
Pair    | 0.068704   | 0.082886   | 0.096443   |   2.6 |  89.0 | 45.88
Neigh   | 6.672e-06  | 7.6482e-06 | 1.3059e-05 |   0.0 | 100.0 |  0.00
Comm    | 0.076903   | 0.090184   | 0.1037     |   2.5 |  85.4 | 49.92
Output  | 8.6805e-05 | 0.00089311 | 0.0017139  |   0.0 | 100.0 |  0.49
Modify  | 0.0035725  | 0.0037555  | 0.0039644  |   0.2 |  87.6 |  2.08
Other   |            | 0.002938   |            |       |       |  1.63

Nlocal:           8000 ave        8078 max        7951 min
Histogram: 4 6 5 3 4 2 4 2 1 1
Nghost:        8995.78 ave        9049 max        8932 min
Histogram: 2 2 4 2 5 2 3 5 4 3
Neighs:              0 ave           0 max           0 min
Histogram: 32 0 0 0 0 0 0 0 0 0

Total # of neighbors = 0
Ave neighs/atom = 0
Neighbor list builds = 5
Dangerous builds not checked


---------------------------------------------------------------------
      Device Time Info (average): 
---------------------------------------------------------------------
Data Transfer:   0.0319 s.
Neighbor copy:   0.0002 s.
Neighbor build:  0.0043 s.
Force calc:      0.0380 s.
Device Overhead: 0.0837 s.
Average split:   1.0000.
Lanes / atom:    4.
Vector width:    32.
Max Mem / Proc:  11.70 MB.
CPU Neighbor:    0.0178 s.
CPU Cast/Pack:   0.0124 s.
CPU Driver_Time: 0.0022 s.
CPU Idle_Time:   0.0605 s.
---------------------------------------------------------------------

Total wall time: 0:00:18
Intel(R) VTune(TM) Profiler 2022.2.0 collection completed successfully. Use the "aps --report /home/ubuntu/lammps/bench/aps_result_20220420" command to generate textual and HTML reports for the profiling session.
