LAMMPS (7 Jan 2022)
  using 1 OpenMP thread(s) per MPI task
Lattice spacing in x,y,z = 1.6795962 1.6795962 1.6795962
Created orthogonal box = (0 0 0) to (67.183848 67.183848 67.183848)
  2 by 4 by 4 MPI processor grid
Created 256000 atoms
  using lattice units in orthogonal box = (0 0 0) to (67.183848 67.183848 67.183848)
  create_atoms CPU = 0.003 seconds

CITE-CITE-CITE-CITE-CITE-CITE-CITE-CITE-CITE-CITE-CITE-CITE-CITE

Your simulation uses code contributions which should be cited:
- GPU package (short-range, long-range and three-body potentials):
The log file lists these citations in BibTeX format.

CITE-CITE-CITE-CITE-CITE-CITE-CITE-CITE-CITE-CITE-CITE-CITE-CITE


--------------------------------------------------------------------------
- Using acceleration for lj/cut:
-  with 8 proc(s) per device.
-  Horizontal vector operations: ENABLED
-  Shared memory system: No
--------------------------------------------------------------------------
Device 0: Tesla V100-SXM2-16GB, 80 CUs, 13/16 GB, 1.5 GHZ (Double Precision)
Device 1: Tesla V100-SXM2-16GB, 80 CUs, 1.5 GHZ (Double Precision)
Device 2: Tesla V100-SXM2-16GB, 80 CUs, 1.5 GHZ (Double Precision)
Device 3: Tesla V100-SXM2-16GB, 80 CUs, 1.5 GHZ (Double Precision)
--------------------------------------------------------------------------

Initializing Device and compiling on process 0...Done.
Initializing Devices 0-3 on core 0...Done.
Initializing Devices 0-3 on core 1...Done.
Initializing Devices 0-3 on core 2...Done.
Initializing Devices 0-3 on core 3...Done.
Initializing Devices 0-3 on core 4...Done.
Initializing Devices 0-3 on core 5...Done.
Initializing Devices 0-3 on core 6...Done.
Initializing Devices 0-3 on core 7...Done.

  generated 0 of 0 mixed pair_coeff terms from geometric mixing rule
Setting up Verlet run ...
  Unit style    : lj
  Current step  : 0
  Time step     : 0.005
Per MPI rank memory allocation (min/avg/max) = 4.639 | 4.721 | 4.765 Mbytes
Step Temp E_pair E_mol TotEng Press 
       0         1.44   -6.7733681            0   -4.6133765    -5.019674 
     100   0.75865617   -5.7603259            0   -4.6223461   0.19586104 
Loop time of 0.28387 on 32 procs for 100 steps with 256000 atoms

Performance: 152182.076 tau/day, 352.273 timesteps/s
96.5% CPU use with 32 MPI tasks x 1 OpenMP threads

MPI task timing breakdown:
Section |  min time  |  avg time  |  max time  |%varavg| %total
---------------------------------------------------------------
Pair    | 0.06602    | 0.12748    | 0.19943    |   8.4 | 44.91
Neigh   | 2.891e-06  | 4.0181e-06 | 5.414e-06  |   0.0 |  0.00
Comm    | 0.070114   | 0.14614    | 0.20789    |   8.2 | 51.48
Output  | 0.00010745 | 0.0011294  | 0.0018988  |   1.6 |  0.40
Modify  | 0.0041215  | 0.0048738  | 0.0063511  |   1.0 |  1.72
Other   |            | 0.004239   |            |       |  1.49

Nlocal:           8000 ave        8078 max        7951 min
Histogram: 4 6 5 3 4 2 4 2 1 1
Nghost:        8995.78 ave        9049 max        8932 min
Histogram: 2 2 4 2 5 2 3 5 4 3
Neighs:              0 ave           0 max           0 min
Histogram: 32 0 0 0 0 0 0 0 0 0

Total # of neighbors = 0
Ave neighs/atom = 0
Neighbor list builds = 5
Dangerous builds not checked


---------------------------------------------------------------------
      Device Time Info (average): 
---------------------------------------------------------------------
Data Transfer:   0.0635 s.
Neighbor copy:   0.0005 s.
Neighbor build:  0.0035 s.
Force calc:      0.0618 s.
Device Overhead: 0.0975 s.
Average split:   1.0000.
Lanes / atom:    4.
Vector width:    32.
Max Mem / Proc:  11.99 MB.
CPU Neighbor:    0.0266 s.
CPU Cast/Pack:   0.0231 s.
CPU Driver_Time: 0.0056 s.
CPU Idle_Time:   0.0906 s.
---------------------------------------------------------------------

Total wall time: 0:00:40
Intel(R) VTune(TM) Profiler 2022.2.0 collection completed successfully. Use the "aps --report /home/ubuntu/lammps/bench/aps_result_20220610" command to generate textual and HTML reports for the profiling session.
