LAMMPS (7 Jan 2022)
  using 1 OpenMP thread(s) per MPI task
Lattice spacing in x,y,z = 1.6795962 1.6795962 1.6795962
Created orthogonal box = (0 0 0) to (33.591924 33.591924 33.591924)
  1 by 2 by 3 MPI processor grid
Created 32000 atoms
  using lattice units in orthogonal box = (0 0 0) to (33.591924 33.591924 33.591924)
  create_atoms CPU = 0.001 seconds

CITE-CITE-CITE-CITE-CITE-CITE-CITE-CITE-CITE-CITE-CITE-CITE-CITE

Your simulation uses code contributions which should be cited:
- GPU package (short-range, long-range and three-body potentials):
The log file lists these citations in BibTeX format.

CITE-CITE-CITE-CITE-CITE-CITE-CITE-CITE-CITE-CITE-CITE-CITE-CITE


--------------------------------------------------------------------------
- Using acceleration for lj/cut:
-  with 6 proc(s) per device.
-  Horizontal vector operations: ENABLED
-  Shared memory system: No
--------------------------------------------------------------------------
Device 0: Tesla V100-SXM2-16GB, 80 CUs, 14/16 GB, 1.5 GHZ (Single Precision)
--------------------------------------------------------------------------

Initializing Device and compiling on process 0...Done.
Initializing Device 0 on core 0...Done.
Initializing Device 0 on core 1...Done.
Initializing Device 0 on core 2...Done.
Initializing Device 0 on core 3...Done.
Initializing Device 0 on core 4...Done.
Initializing Device 0 on core 5...Done.

  generated 0 of 0 mixed pair_coeff terms from geometric mixing rule
Setting up Verlet run ...
  Unit style    : lj
  Current step  : 0
  Time step     : 0.005
Per MPI rank memory allocation (min/avg/max) = 2.547 | 2.581 | 2.617 Mbytes
Step Temp E_pair E_mol TotEng Press 
       0         1.44   -6.7733684            0   -4.6134359   -5.0197072 
     100   0.75745329   -5.7585058            0   -4.6223614   0.20726117 
Loop time of 0.113885 on 6 procs for 100 steps with 32000 atoms

Performance: 379328.923 tau/day, 878.076 timesteps/s
94.9% CPU use with 6 MPI tasks x 1 OpenMP threads

MPI task timing breakdown:
Section |  min time  |  avg time  |  max time  |%varavg| %total
---------------------------------------------------------------
Pair    | 0.044312   | 0.057346   | 0.068203   |   3.0 | 50.35
Neigh   | 1.443e-06  | 1.6545e-06 | 2.046e-06  |   0.0 |  0.00
Comm    | 0.041108   | 0.051835   | 0.065192   |   3.2 | 45.51
Output  | 5.1606e-05 | 0.0005286  | 0.00098582 |   0.0 |  0.46
Modify  | 0.0023307  | 0.0023699  | 0.0024167  |   0.1 |  2.08
Other   |            | 0.001804   |            |       |  1.58

Nlocal:        5333.33 ave        5413 max        5229 min
Histogram: 2 0 0 0 0 0 0 2 1 1
Nghost:        7305.83 ave        7399 max        7227 min
Histogram: 1 0 2 1 0 0 0 0 0 2
Neighs:              0 ave           0 max           0 min
Histogram: 6 0 0 0 0 0 0 0 0 0

Total # of neighbors = 0
Ave neighs/atom = 0
Neighbor list builds = 5
Dangerous builds not checked


---------------------------------------------------------------------
      Device Time Info (average): 
---------------------------------------------------------------------
Data Transfer:   0.0130 s.
Neighbor copy:   0.0003 s.
Neighbor build:  0.0031 s.
Force calc:      0.0348 s.
Device Overhead: 0.0716 s.
Average split:   1.0000.
Lanes / atom:    4.
Vector width:    32.
Max Mem / Proc:  4.57 MB.
CPU Neighbor:    0.0045 s.
CPU Cast/Pack:   0.0087 s.
CPU Driver_Time: 0.0039 s.
CPU Idle_Time:   0.0395 s.
---------------------------------------------------------------------

Total wall time: 0:00:07
Intel(R) VTune(TM) Profiler 2022.2.0 collection completed successfully. Use the "aps --report /home/ubuntu/lammps/bench/aps_result_20220609" command to generate textual and HTML reports for the profiling session.
