LAMMPS (7 Jan 2022)
  using 1 OpenMP thread(s) per MPI task
New timer settings: style=full  mode=sync  timeout=off
Lattice spacing in x,y,z = 1.6795962 1.6795962 1.6795962
Created orthogonal box = (0 0 0) to (67.183848 67.183848 67.183848)
  2 by 2 by 4 MPI processor grid
Created 256000 atoms
  using lattice units in orthogonal box = (0 0 0) to (67.183848 67.183848 67.183848)
  create_atoms CPU = 0.004 seconds

CITE-CITE-CITE-CITE-CITE-CITE-CITE-CITE-CITE-CITE-CITE-CITE-CITE

Your simulation uses code contributions which should be cited:
- GPU package (short-range, long-range and three-body potentials):
The log file lists these citations in BibTeX format.

CITE-CITE-CITE-CITE-CITE-CITE-CITE-CITE-CITE-CITE-CITE-CITE-CITE


--------------------------------------------------------------------------
- Using acceleration for lj/cut:
-  with 16 proc(s) per device.
-  Horizontal vector operations: ENABLED
-  Shared memory system: No
--------------------------------------------------------------------------
Device 0: Tesla V100-SXM2-16GB, 80 CUs, 11/16 GB, 1.5 GHZ (Mixed Precision)
--------------------------------------------------------------------------

Initializing Device and compiling on process 0...Done.
Initializing Device 0 on core 0...Done.
Initializing Device 0 on core 1...Done.
Initializing Device 0 on core 2...Done.
Initializing Device 0 on core 3...Done.
Initializing Device 0 on core 4...Done.
Initializing Device 0 on core 5...Done.
Initializing Device 0 on core 6...Done.
Initializing Device 0 on core 7...Done.
Initializing Device 0 on core 8...Done.
Initializing Device 0 on core 9...Done.
Initializing Device 0 on core 10...Done.
Initializing Device 0 on core 11...Done.
Initializing Device 0 on core 12...Done.
Initializing Device 0 on core 13...Done.
Initializing Device 0 on core 14...Done.
Initializing Device 0 on core 15...Done.

  generated 0 of 0 mixed pair_coeff terms from geometric mixing rule
Setting up Verlet run ...
  Unit style    : lj
  Current step  : 0
  Time step     : 0.005
Per MPI rank memory allocation (min/avg/max) = 5.204 | 5.269 | 5.308 Mbytes
Step Temp E_pair E_mol TotEng Press 
       0         1.44   -6.7733683            0   -4.6133768   -5.0196737 
   10000   0.69669715   -5.6662266            0   -4.6211849   0.75065384 
Loop time of 31.3095 on 16 procs for 10000 steps with 256000 atoms

Performance: 137977.414 tau/day, 319.392 timesteps/s
98.4% CPU use with 16 MPI tasks x 1 OpenMP threads

MPI task timing breakdown:
Section |  min time  |  avg time  |  max time  |%varavg|  %CPU | %total
-----------------------------------------------------------------------
Pair    | 14.844     | 16.345     | 17.679     |  18.9 |  98.6 | 52.20
Neigh   | 0.00055571 | 0.00060763 | 0.00068293 |   0.0 | 100.0 |  0.00
Comm    | 3.2004     | 3.2397     | 3.2637     |   1.0 |  98.0 | 10.35
Output  | 0.00012871 | 0.00013084 | 0.00015162 |   0.0 | 100.0 |  0.00
Modify  | 0.85759    | 0.87644    | 0.89754    |   1.2 |  97.8 |  2.80
Sync    | 8.9632     | 10.295     | 11.786     |  24.0 |  98.2 | 32.88
Other   |            | 10.85      |            |       |       | 34.65

Nlocal:          16000 ave       16038 max       15963 min
Histogram: 1 1 2 1 4 1 2 2 1 1
Nghost:        13043.1 ave       13103 max       12955 min
Histogram: 1 0 0 1 3 3 2 4 1 1
Neighs:              0 ave           0 max           0 min
Histogram: 16 0 0 0 0 0 0 0 0 0

Total # of neighbors = 0
Ave neighs/atom = 0
Neighbor list builds = 500
Dangerous builds not checked


---------------------------------------------------------------------
      Device Time Info (average): 
---------------------------------------------------------------------
Data Transfer:   4.7150 s.
Neighbor copy:   0.0171 s.
Neighbor build:  0.7871 s.
Force calc:      8.6018 s.
Device Overhead: 16.3651 s.
Average split:   1.0000.
Lanes / atom:    4.
Vector width:    32.
Max Mem / Proc:  14.31 MB.
CPU Neighbor:    0.5194 s.
CPU Cast/Pack:   2.0915 s.
CPU Driver_Time: 0.2231 s.
CPU Idle_Time:   12.7745 s.
---------------------------------------------------------------------

Total wall time: 0:00:40
Intel(R) VTune(TM) Profiler 2022.1.0 collection completed successfully. Use the "aps --report /home/ubuntu/lammps/bench/aps_result_20220414" command to generate textual and HTML reports for the profiling session.
