LAMMPS (7 Jan 2022)
  using 1 OpenMP thread(s) per MPI task
Lattice spacing in x,y,z = 1.6795962 1.6795962 1.6795962
Created orthogonal box = (0 0 0) to (33.591924 33.591924 33.591924)
  2 by 2 by 3 MPI processor grid
Created 32000 atoms
  using lattice units in orthogonal box = (0 0 0) to (33.591924 33.591924 33.591924)
  create_atoms CPU = 0.002 seconds

CITE-CITE-CITE-CITE-CITE-CITE-CITE-CITE-CITE-CITE-CITE-CITE-CITE

Your simulation uses code contributions which should be cited:
- GPU package (short-range, long-range and three-body potentials):
The log file lists these citations in BibTeX format.

CITE-CITE-CITE-CITE-CITE-CITE-CITE-CITE-CITE-CITE-CITE-CITE-CITE


--------------------------------------------------------------------------
- Using acceleration for lj/cut:
-  with 6 proc(s) per device.
-  Horizontal vector operations: ENABLED
-  Shared memory system: No
--------------------------------------------------------------------------
Device 0: Tesla V100-SXM2-16GB, 80 CUs, 14/16 GB, 1.5 GHZ (Single Precision)
Device 1: Tesla V100-SXM2-16GB, 80 CUs, 1.5 GHZ (Single Precision)
--------------------------------------------------------------------------

Initializing Device and compiling on process 0...Done.
Initializing Devices 0-1 on core 0...Done.
Initializing Devices 0-1 on core 1...Done.
Initializing Devices 0-1 on core 2...Done.
Initializing Devices 0-1 on core 3...Done.
Initializing Devices 0-1 on core 4...Done.
Initializing Devices 0-1 on core 5...Done.

  generated 0 of 0 mixed pair_coeff terms from geometric mixing rule
Setting up Verlet run ...
  Unit style    : lj
  Current step  : 0
  Time step     : 0.005
Per MPI rank memory allocation (min/avg/max) = 2.286 | 2.293 | 2.306 Mbytes
Step Temp E_pair E_mol TotEng Press 
       0         1.44   -6.7733684            0   -4.6134359   -5.0197072 
     100   0.75745331   -5.7585059            0   -4.6223614   0.20726092 
Loop time of 0.110818 on 12 procs for 100 steps with 32000 atoms

Performance: 389827.619 tau/day, 902.379 timesteps/s
98.0% CPU use with 12 MPI tasks x 1 OpenMP threads

MPI task timing breakdown:
Section |  min time  |  avg time  |  max time  |%varavg| %total
---------------------------------------------------------------
Pair    | 0.045357   | 0.050431   | 0.053629   |   1.1 | 45.51
Neigh   | 1.59e-06   | 2.3295e-06 | 2.847e-06  |   0.0 |  0.00
Comm    | 0.053389   | 0.057038   | 0.061882   |   1.1 | 51.47
Output  | 6.255e-05  | 0.0005724  | 0.0010498  |   0.0 |  0.52
Modify  | 0.0014382  | 0.0015987  | 0.001789   |   0.2 |  1.44
Other   |            | 0.001175   |            |       |  1.06

Nlocal:        2666.67 ave        2723 max        2604 min
Histogram: 2 1 1 0 0 2 2 2 1 1
Nghost:        4584.75 ave        4662 max        4526 min
Histogram: 1 0 4 2 2 1 0 0 0 2
Neighs:              0 ave           0 max           0 min
Histogram: 12 0 0 0 0 0 0 0 0 0

Total # of neighbors = 0
Ave neighs/atom = 0
Neighbor list builds = 5
Dangerous builds not checked


---------------------------------------------------------------------
      Device Time Info (average): 
---------------------------------------------------------------------
Data Transfer:   0.0114 s.
Neighbor copy:   0.0003 s.
Neighbor build:  0.0028 s.
Force calc:      0.0336 s.
Device Overhead: 0.0682 s.
Average split:   1.0000.
Lanes / atom:    4.
Vector width:    32.
Max Mem / Proc:  2.31 MB.
CPU Neighbor:    0.0101 s.
CPU Cast/Pack:   0.0051 s.
CPU Driver_Time: 0.0040 s.
CPU Idle_Time:   0.0342 s.
---------------------------------------------------------------------

Total wall time: 0:00:14
Intel(R) VTune(TM) Profiler 2022.2.0 collection completed successfully. Use the "aps --report /home/ubuntu/lammps/bench/aps_result_20220609" command to generate textual and HTML reports for the profiling session.
