LAMMPS (7 Jan 2022)
  using 1 OpenMP thread(s) per MPI task
New timer settings: style=full  mode=nosync  timeout=off
Lattice spacing in x,y,z = 1.6795962 1.6795962 1.6795962
Created orthogonal box = (0 0 0) to (33.591924 33.591924 33.591924)
  2 by 3 by 3 MPI processor grid
Created 32000 atoms
  using lattice units in orthogonal box = (0 0 0) to (33.591924 33.591924 33.591924)
  create_atoms CPU = 0.001 seconds

CITE-CITE-CITE-CITE-CITE-CITE-CITE-CITE-CITE-CITE-CITE-CITE-CITE

Your simulation uses code contributions which should be cited:
- GPU package (short-range, long-range and three-body potentials):
The log file lists these citations in BibTeX format.

CITE-CITE-CITE-CITE-CITE-CITE-CITE-CITE-CITE-CITE-CITE-CITE-CITE


--------------------------------------------------------------------------
- Using acceleration for lj/cut:
-  with 3 proc(s) per device.
-  Horizontal vector operations: ENABLED
-  Shared memory system: No
--------------------------------------------------------------------------
Device 0: Tesla V100-SXM2-16GB, 80 CUs, 15/16 GB, 1.5 GHZ (Mixed Precision)
Device 1: Tesla V100-SXM2-16GB, 80 CUs, 1.5 GHZ (Mixed Precision)
Device 2: Tesla V100-SXM2-16GB, 80 CUs, 1.5 GHZ (Mixed Precision)
Device 3: Tesla V100-SXM2-16GB, 80 CUs, 1.5 GHZ (Mixed Precision)
Device 4: Tesla V100-SXM2-16GB, 80 CUs, 1.5 GHZ (Mixed Precision)
Device 5: Tesla V100-SXM2-16GB, 80 CUs, 1.5 GHZ (Mixed Precision)
--------------------------------------------------------------------------

Initializing Device and compiling on process 0...Done.
Initializing Devices 0-5 on core 0...Done.
Initializing Devices 0-5 on core 1...Done.
Initializing Devices 0-5 on core 2...Done.

  generated 0 of 0 mixed pair_coeff terms from geometric mixing rule
Setting up Verlet run ...
  Unit style    : lj
  Current step  : 0
  Time step     : 0.005
Per MPI rank memory allocation (min/avg/max) = 2.16 | 2.187 | 2.212 Mbytes
Step Temp E_pair E_mol TotEng Press 
       0         1.44   -6.7733683            0   -4.6134358    -5.019707 
     100   0.75745333   -5.7585059            0   -4.6223614   0.20726081 
Loop time of 0.0586318 on 18 procs for 100 steps with 32000 atoms

Performance: 736801.178 tau/day, 1705.558 timesteps/s
87.0% CPU use with 18 MPI tasks x 1 OpenMP threads

MPI task timing breakdown:
Section |  min time  |  avg time  |  max time  |%varavg|  %CPU | %total
-----------------------------------------------------------------------
Pair    | 0.020213   | 0.02635    | 0.03821    |   2.5 |  87.3 | 44.94
Neigh   | 6.331e-06  | 6.8007e-06 | 7.398e-06  |   0.0 | 100.0 |  0.01
Comm    | 0.018237   | 0.029999   | 0.036126   |   2.3 |  86.6 | 51.16
Output  | 6.0528e-05 | 0.00029073 | 0.0005325  |   0.0 |  92.3 |  0.50
Modify  | 0.00092036 | 0.00095408 | 0.0010689  |   0.0 |  86.6 |  1.63
Other   |            | 0.001031   |            |       |       |  1.76

Nlocal:        1777.78 ave        1835 max        1707 min
Histogram: 2 0 1 3 2 2 1 2 4 1
Nghost:        3607.22 ave        3678 max        3550 min
Histogram: 4 1 2 3 0 0 4 2 1 1
Neighs:              0 ave           0 max           0 min
Histogram: 18 0 0 0 0 0 0 0 0 0

Total # of neighbors = 0
Ave neighs/atom = 0
Neighbor list builds = 5
Dangerous builds not checked


---------------------------------------------------------------------
      Device Time Info (average): 
---------------------------------------------------------------------
Data Transfer:   0.0064 s.
Neighbor copy:   0.0001 s.
Neighbor build:  0.0016 s.
Force calc:      0.0165 s.
Device Overhead: 0.0343 s.
Average split:   1.0000.
Lanes / atom:    4.
Vector width:    32.
Max Mem / Proc:  1.71 MB.
CPU Neighbor:    0.0008 s.
CPU Cast/Pack:   0.0033 s.
CPU Driver_Time: 0.0021 s.
CPU Idle_Time:   0.0170 s.
---------------------------------------------------------------------

Total wall time: 0:00:10
Intel(R) VTune(TM) Profiler 2022.2.0 collection completed successfully. Use the "aps --report /home/ubuntu/lammps/bench/aps_result_20220420" command to generate textual and HTML reports for the profiling session.
