LAMMPS (7 Jan 2022)
  using 1 OpenMP thread(s) per MPI task
New timer settings: style=full  mode=sync  timeout=off
Lattice spacing in x,y,z = 1.6795962 1.6795962 1.6795962
Created orthogonal box = (0 0 0) to (33.591924 33.591924 33.591924)
  2 by 2 by 3 MPI processor grid
Created 32000 atoms
  using lattice units in orthogonal box = (0 0 0) to (33.591924 33.591924 33.591924)
  create_atoms CPU = 0.001 seconds

CITE-CITE-CITE-CITE-CITE-CITE-CITE-CITE-CITE-CITE-CITE-CITE-CITE

Your simulation uses code contributions which should be cited:
- GPU package (short-range, long-range and three-body potentials):
The log file lists these citations in BibTeX format.

CITE-CITE-CITE-CITE-CITE-CITE-CITE-CITE-CITE-CITE-CITE-CITE-CITE


--------------------------------------------------------------------------
- Using acceleration for lj/cut:
-  with 3 proc(s) per device.
-  Horizontal vector operations: ENABLED
-  Shared memory system: No
--------------------------------------------------------------------------
Device 0: Tesla V100-SXM2-16GB, 80 CUs, 15/16 GB, 1.5 GHZ (Mixed Precision)
Device 1: Tesla V100-SXM2-16GB, 80 CUs, 1.5 GHZ (Mixed Precision)
Device 2: Tesla V100-SXM2-16GB, 80 CUs, 1.5 GHZ (Mixed Precision)
Device 3: Tesla V100-SXM2-16GB, 80 CUs, 1.5 GHZ (Mixed Precision)
--------------------------------------------------------------------------

Initializing Device and compiling on process 0...Done.
Initializing Devices 0-3 on core 0...Done.
Initializing Devices 0-3 on core 1...Done.
Initializing Devices 0-3 on core 2...Done.

  generated 0 of 0 mixed pair_coeff terms from geometric mixing rule
Setting up Verlet run ...
  Unit style    : lj
  Current step  : 0
  Time step     : 0.005
Per MPI rank memory allocation (min/avg/max) = 2.286 | 2.293 | 2.306 Mbytes
Step Temp E_pair E_mol TotEng Press 
       0         1.44   -6.7733683            0   -4.6134358    -5.019707 
   10000   0.69722016   -5.6671943            0   -4.6213967   0.73141281 
Loop time of 6.23995 on 12 procs for 10000 steps with 32000 atoms

Performance: 692313.699 tau/day, 1602.578 timesteps/s
96.6% CPU use with 12 MPI tasks x 1 OpenMP threads

MPI task timing breakdown:
Section |  min time  |  avg time  |  max time  |%varavg|  %CPU | %total
-----------------------------------------------------------------------
Pair    | 2.6249     | 2.9685     | 3.3782     |  14.4 |  96.6 | 47.57
Neigh   | 0.00063791 | 0.00066454 | 0.00071112 |   0.0 | 100.0 |  0.01
Comm    | 1.1845     | 1.1903     | 1.1958     |   0.4 |  96.4 | 19.07
Output  | 0.00010712 | 0.00010874 | 0.00012309 |   0.0 | 100.0 |  0.00
Modify  | 0.11855    | 0.12016    | 0.12208    |   0.3 |  95.7 |  1.93
Sync    | 1.4284     | 1.8405     | 2.1904     |  18.3 |  96.8 | 29.49
Other   |            | 1.96       |            |       |       | 31.42

Nlocal:        2666.67 ave        2683 max        2647 min
Histogram: 1 0 1 2 1 1 3 0 2 1
Nghost:        4446.08 ave        4485 max        4417 min
Histogram: 1 2 2 1 3 1 0 0 0 2
Neighs:              0 ave           0 max           0 min
Histogram: 12 0 0 0 0 0 0 0 0 0

Total # of neighbors = 0
Ave neighs/atom = 0
Neighbor list builds = 500
Dangerous builds not checked


---------------------------------------------------------------------
      Device Time Info (average): 
---------------------------------------------------------------------
Data Transfer:   0.9328 s.
Neighbor copy:   0.0127 s.
Neighbor build:  0.1334 s.
Force calc:      1.4651 s.
Device Overhead: 3.3498 s.
Average split:   1.0000.
Lanes / atom:    4.
Vector width:    32.
Max Mem / Proc:  2.44 MB.
CPU Neighbor:    0.1265 s.
CPU Cast/Pack:   0.4573 s.
CPU Driver_Time: 0.2191 s.
CPU Idle_Time:   1.8151 s.
---------------------------------------------------------------------

Total wall time: 0:00:13
Intel(R) VTune(TM) Profiler 2022.1.0 collection completed successfully. Use the "aps --report /home/ubuntu/lammps/bench/aps_result_20220414" command to generate textual and HTML reports for the profiling session.
