LAMMPS (7 Jan 2022)
  using 1 OpenMP thread(s) per MPI task
Lattice spacing in x,y,z = 1.6795962 1.6795962 1.6795962
Created orthogonal box = (0 0 0) to (100.77577 100.77577 100.77577)
  3 by 3 by 4 MPI processor grid
Created 864000 atoms
  using lattice units in orthogonal box = (0 0 0) to (100.77577 100.77577 100.77577)
  create_atoms CPU = 0.012 seconds

CITE-CITE-CITE-CITE-CITE-CITE-CITE-CITE-CITE-CITE-CITE-CITE-CITE

Your simulation uses code contributions which should be cited:
- GPU package (short-range, long-range and three-body potentials):
The log file lists these citations in BibTeX format.

CITE-CITE-CITE-CITE-CITE-CITE-CITE-CITE-CITE-CITE-CITE-CITE-CITE


--------------------------------------------------------------------------
- Using acceleration for lj/cut:
-  with 36 proc(s) per device.
-  Horizontal vector operations: ENABLED
-  Shared memory system: No
--------------------------------------------------------------------------
Device 0: Tesla V100-SXM2-16GB, 80 CUs, 5.1/16 GB, 1.5 GHZ (Double Precision)
--------------------------------------------------------------------------

Initializing Device and compiling on process 0...Done.
Initializing Device 0 on core 0...Done.
Initializing Device 0 on core 1...Done.
Initializing Device 0 on core 2...Done.
Initializing Device 0 on core 3...Done.
Initializing Device 0 on core 4...Done.
Initializing Device 0 on core 5...Done.
Initializing Device 0 on core 6...Done.
Initializing Device 0 on core 7...Done.
Initializing Device 0 on core 8...Done.
Initializing Device 0 on core 9...Done.
Initializing Device 0 on core 10...Done.
Initializing Device 0 on core 11...Done.
Initializing Device 0 on core 12...Done.
Initializing Device 0 on core 13...Done.
Initializing Device 0 on core 14...Done.
Initializing Device 0 on core 15...Done.
Initializing Device 0 on core 16...Done.
Initializing Device 0 on core 17...Done.
Initializing Device 0 on core 18...Done.
Initializing Device 0 on core 19...Done.
Initializing Device 0 on core 20...Done.
Initializing Device 0 on core 21...Done.
Initializing Device 0 on core 22...Done.
Initializing Device 0 on core 23...Done.
Initializing Device 0 on core 24...Done.
Initializing Device 0 on core 25...Done.
Initializing Device 0 on core 26...Done.
Initializing Device 0 on core 27...Done.
Initializing Device 0 on core 28...Done.
Initializing Device 0 on core 29...Done.
Initializing Device 0 on core 30...Done.
Initializing Device 0 on core 31...Done.
Initializing Device 0 on core 32...Done.
Initializing Device 0 on core 33...Done.
Initializing Device 0 on core 34...Done.
Initializing Device 0 on core 35...Done.

  generated 0 of 0 mixed pair_coeff terms from geometric mixing rule
Setting up Verlet run ...
  Unit style    : lj
  Current step  : 0
  Time step     : 0.005
Per MPI rank memory allocation (min/avg/max) = 8.127 | 8.127 | 8.127 Mbytes
Step Temp E_pair E_mol TotEng Press 
       0         1.44   -6.7733681            0   -4.6133706   -5.0196707 
     100   0.75926567   -5.7611846            0   -4.6222874   0.19243178 
Loop time of 0.903903 on 36 procs for 100 steps with 864000 atoms

Performance: 47792.755 tau/day, 110.631 timesteps/s
94.4% CPU use with 36 MPI tasks x 1 OpenMP threads

MPI task timing breakdown:
Section |  min time  |  avg time  |  max time  |%varavg| %total
---------------------------------------------------------------
Pair    | 0.44869    | 0.49726    | 0.54906    |   3.3 | 55.01
Neigh   | 3.934e-06  | 5.663e-06  | 1.3818e-05 |   0.0 |  0.00
Comm    | 0.31344    | 0.36683    | 0.41525    |   4.0 | 40.58
Output  | 0.00028702 | 0.0051685  | 0.01054    |   4.2 |  0.57
Modify  | 0.020609   | 0.021218   | 0.022854   |   0.3 |  2.35
Other   |            | 0.01342    |            |       |  1.48

Nlocal:          24000 ave       24061 max       23931 min
Histogram: 3 2 3 5 2 5 5 4 3 4
Nghost:        16634.4 ave       16717 max       16573 min
Histogram: 4 4 5 3 6 7 1 4 1 1
Neighs:              0 ave           0 max           0 min
Histogram: 36 0 0 0 0 0 0 0 0 0

Total # of neighbors = 0
Ave neighs/atom = 0
Neighbor list builds = 5
Dangerous builds not checked


---------------------------------------------------------------------
      Device Time Info (average): 
---------------------------------------------------------------------
Data Transfer:   0.2334 s.
Neighbor copy:   0.0010 s.
Neighbor build:  0.0208 s.
Force calc:      0.2042 s.
Device Overhead: 0.4230 s.
Average split:   1.0000.
Lanes / atom:    4.
Vector width:    32.
Max Mem / Proc:  21.10 MB.
CPU Neighbor:    0.0331 s.
CPU Cast/Pack:   0.0580 s.
CPU Driver_Time: 0.0049 s.
CPU Idle_Time:   0.4195 s.
---------------------------------------------------------------------

Total wall time: 0:00:47
Intel(R) VTune(TM) Profiler 2022.2.0 collection completed successfully. Use the "aps --report /home/ubuntu/lammps/bench/aps_result_20220610" command to generate textual and HTML reports for the profiling session.
