LAMMPS (7 Jan 2022)
  using 1 OpenMP thread(s) per MPI task
New timer settings: style=full  mode=sync  timeout=off
Lattice spacing in x,y,z = 1.6795962 1.6795962 1.6795962
Created orthogonal box = (0 0 0) to (33.591924 33.591924 33.591924)
  2 by 3 by 3 MPI processor grid
Created 32000 atoms
  using lattice units in orthogonal box = (0 0 0) to (33.591924 33.591924 33.591924)
  create_atoms CPU = 0.001 seconds

CITE-CITE-CITE-CITE-CITE-CITE-CITE-CITE-CITE-CITE-CITE-CITE-CITE

Your simulation uses code contributions which should be cited:
- GPU package (short-range, long-range and three-body potentials):
The log file lists these citations in BibTeX format.

CITE-CITE-CITE-CITE-CITE-CITE-CITE-CITE-CITE-CITE-CITE-CITE-CITE


--------------------------------------------------------------------------
- Using acceleration for lj/cut:
-  with 3 proc(s) per device.
-  Horizontal vector operations: ENABLED
-  Shared memory system: No
--------------------------------------------------------------------------
Device 0: Tesla V100-SXM2-16GB, 80 CUs, 15/16 GB, 1.5 GHZ (Mixed Precision)
Device 1: Tesla V100-SXM2-16GB, 80 CUs, 1.5 GHZ (Mixed Precision)
Device 2: Tesla V100-SXM2-16GB, 80 CUs, 1.5 GHZ (Mixed Precision)
Device 3: Tesla V100-SXM2-16GB, 80 CUs, 1.5 GHZ (Mixed Precision)
Device 4: Tesla V100-SXM2-16GB, 80 CUs, 1.5 GHZ (Mixed Precision)
Device 5: Tesla V100-SXM2-16GB, 80 CUs, 1.5 GHZ (Mixed Precision)
--------------------------------------------------------------------------

Initializing Device and compiling on process 0...Done.
Initializing Devices 0-5 on core 0...Done.
Initializing Devices 0-5 on core 1...Done.
Initializing Devices 0-5 on core 2...Done.

  generated 0 of 0 mixed pair_coeff terms from geometric mixing rule
Setting up Verlet run ...
  Unit style    : lj
  Current step  : 0
  Time step     : 0.005
Per MPI rank memory allocation (min/avg/max) = 2.16 | 2.187 | 2.212 Mbytes
Step Temp E_pair E_mol TotEng Press 
       0         1.44   -6.7733683            0   -4.6134358    -5.019707 
   10000   0.69582978   -5.6648156            0   -4.6211035   0.76558718 
Loop time of 5.41578 on 18 procs for 10000 steps with 32000 atoms

Performance: 797669.337 tau/day, 1846.457 timesteps/s
96.9% CPU use with 18 MPI tasks x 1 OpenMP threads

MPI task timing breakdown:
Section |  min time  |  avg time  |  max time  |%varavg|  %CPU | %total
-----------------------------------------------------------------------
Pair    | 2.2163     | 2.4834     | 2.8957     |  11.6 |  96.9 | 45.86
Neigh   | 0.00063039 | 0.00068105 | 0.00072219 |   0.0 | 100.0 |  0.01
Comm    | 1.0462     | 1.0502     | 1.0579     |   0.3 |  96.7 | 19.39
Output  | 8.4775e-05 | 8.6046e-05 | 0.00010272 |   0.0 | 100.0 |  0.00
Modify  | 0.087898   | 0.089963   | 0.091972   |   0.4 |  95.9 |  1.66
Sync    | 1.2792     | 1.6925     | 1.9557     |  14.1 |  97.2 | 31.25
Other   |            | 1.791      |            |       |       | 33.08

Nlocal:        1777.78 ave        1791 max        1765 min
Histogram: 3 1 1 2 1 3 2 1 3 1
Nghost:         3561.5 ave        3602 max        3510 min
Histogram: 1 0 1 1 2 5 5 2 0 1
Neighs:              0 ave           0 max           0 min
Histogram: 18 0 0 0 0 0 0 0 0 0

Total # of neighbors = 0
Ave neighs/atom = 0
Neighbor list builds = 500
Dangerous builds not checked


---------------------------------------------------------------------
      Device Time Info (average): 
---------------------------------------------------------------------
Data Transfer:   0.6522 s.
Neighbor copy:   0.0116 s.
Neighbor build:  0.1337 s.
Force calc:      1.4483 s.
Device Overhead: 3.2524 s.
Average split:   1.0000.
Lanes / atom:    4.
Vector width:    32.
Max Mem / Proc:  1.71 MB.
CPU Neighbor:    0.0868 s.
CPU Cast/Pack:   0.3198 s.
CPU Driver_Time: 0.1998 s.
CPU Idle_Time:   1.5389 s.
---------------------------------------------------------------------

Total wall time: 0:00:15
Intel(R) VTune(TM) Profiler 2022.1.0 collection completed successfully. Use the "aps --report /home/ubuntu/lammps/bench/aps_result_20220414" command to generate textual and HTML reports for the profiling session.
