LAMMPS (7 Jan 2022)
  using 1 OpenMP thread(s) per MPI task
Lattice spacing in x,y,z = 1.6795962 1.6795962 1.6795962
Created orthogonal box = (0 0 0) to (67.183848 67.183848 67.183848)
  7 by 2 by 2 MPI processor grid
Created 256000 atoms
  using lattice units in orthogonal box = (0 0 0) to (67.183848 67.183848 67.183848)
  create_atoms CPU = 0.003 seconds

CITE-CITE-CITE-CITE-CITE-CITE-CITE-CITE-CITE-CITE-CITE-CITE-CITE

Your simulation uses code contributions which should be cited:
- GPU package (short-range, long-range and three-body potentials):
The log file lists these citations in BibTeX format.

CITE-CITE-CITE-CITE-CITE-CITE-CITE-CITE-CITE-CITE-CITE-CITE-CITE


--------------------------------------------------------------------------
- Using acceleration for lj/cut:
-  with 14 proc(s) per device.
-  Horizontal vector operations: ENABLED
-  Shared memory system: No
--------------------------------------------------------------------------
Device 0: Tesla V100-SXM2-16GB, 80 CUs, 12/16 GB, 1.5 GHZ (Single Precision)
Device 1: Tesla V100-SXM2-16GB, 80 CUs, 1.5 GHZ (Single Precision)
--------------------------------------------------------------------------

Initializing Device and compiling on process 0...Done.
Initializing Devices 0-1 on core 0...Done.
Initializing Devices 0-1 on core 1...Done.
Initializing Devices 0-1 on core 2...Done.
Initializing Devices 0-1 on core 3...Done.
Initializing Devices 0-1 on core 4...Done.
Initializing Devices 0-1 on core 5...Done.
Initializing Devices 0-1 on core 6...Done.
Initializing Devices 0-1 on core 7...Done.
Initializing Devices 0-1 on core 8...Done.
Initializing Devices 0-1 on core 9...Done.
Initializing Devices 0-1 on core 10...Done.
Initializing Devices 0-1 on core 11...Done.
Initializing Devices 0-1 on core 12...Done.
Initializing Devices 0-1 on core 13...Done.

  generated 0 of 0 mixed pair_coeff terms from geometric mixing rule
Setting up Verlet run ...
  Unit style    : lj
  Current step  : 0
  Time step     : 0.005
Per MPI rank memory allocation (min/avg/max) = 4.564 | 4.622 | 4.638 Mbytes
Step Temp E_pair E_mol TotEng Press 
       0         1.44   -6.7733685            0   -4.6133769   -5.0196739 
     100   0.75865617   -5.7603262            0   -4.6223464   0.19586053 
Loop time of 0.246142 on 28 procs for 100 steps with 256000 atoms

Performance: 175508.148 tau/day, 406.269 timesteps/s
97.5% CPU use with 28 MPI tasks x 1 OpenMP threads

MPI task timing breakdown:
Section |  min time  |  avg time  |  max time  |%varavg| %total
---------------------------------------------------------------
Pair    | 0.088887   | 0.10236    | 0.11384    |   2.0 | 41.58
Neigh   | 2.049e-06  | 3.5283e-06 | 5.666e-06  |   0.0 |  0.00
Comm    | 0.12131    | 0.13352    | 0.14734    |   1.8 | 54.25
Output  | 8.7262e-05 | 0.0013611  | 0.0026633  |   2.1 |  0.55
Modify  | 0.0047079  | 0.0050674  | 0.0055339  |   0.3 |  2.06
Other   |            | 0.003834   |            |       |  1.56

Nlocal:        9142.86 ave        9407 max        8897 min
Histogram: 4 8 0 0 1 4 3 0 1 7
Nghost:        10771.9 ave       11169 max       10416 min
Histogram: 8 0 1 6 1 0 0 6 2 4
Neighs:              0 ave           0 max           0 min
Histogram: 28 0 0 0 0 0 0 0 0 0

Total # of neighbors = 0
Ave neighs/atom = 0
Neighbor list builds = 5
Dangerous builds not checked


---------------------------------------------------------------------
      Device Time Info (average): 
---------------------------------------------------------------------
Data Transfer:   0.0308 s.
Neighbor copy:   0.0005 s.
Neighbor build:  0.0062 s.
Force calc:      0.0665 s.
Device Overhead: 0.1557 s.
Average split:   1.0000.
Lanes / atom:    4.
Vector width:    32.
Max Mem / Proc:  7.80 MB.
CPU Neighbor:    0.0241 s.
CPU Cast/Pack:   0.0147 s.
CPU Driver_Time: 0.0042 s.
CPU Idle_Time:   0.0738 s.
---------------------------------------------------------------------

Total wall time: 0:00:35
Intel(R) VTune(TM) Profiler 2022.2.0 collection completed successfully. Use the "aps --report /home/ubuntu/lammps/bench/aps_result_20220609" command to generate textual and HTML reports for the profiling session.
