LAMMPS (7 Jan 2022)
  using 1 OpenMP thread(s) per MPI task
New timer settings: style=full  mode=sync  timeout=off
Lattice spacing in x,y,z = 1.6795962 1.6795962 1.6795962
Created orthogonal box = (0 0 0) to (134.3677 134.3677 134.3677)
  2 by 2 by 4 MPI processor grid
Created 2048000 atoms
  using lattice units in orthogonal box = (0 0 0) to (134.3677 134.3677 134.3677)
  create_atoms CPU = 0.020 seconds

CITE-CITE-CITE-CITE-CITE-CITE-CITE-CITE-CITE-CITE-CITE-CITE-CITE

Your simulation uses code contributions which should be cited:
- GPU package (short-range, long-range and three-body potentials):
The log file lists these citations in BibTeX format.

CITE-CITE-CITE-CITE-CITE-CITE-CITE-CITE-CITE-CITE-CITE-CITE-CITE


--------------------------------------------------------------------------
- Using acceleration for lj/cut:
-  with 16 proc(s) per device.
-  Horizontal vector operations: ENABLED
-  Shared memory system: No
--------------------------------------------------------------------------
Device 0: Tesla V100-SXM2-16GB, 80 CUs, 11/16 GB, 1.5 GHZ (Mixed Precision)
--------------------------------------------------------------------------

Initializing Device and compiling on process 0...Done.
Initializing Device 0 on core 0...Done.
Initializing Device 0 on core 1...Done.
Initializing Device 0 on core 2...Done.
Initializing Device 0 on core 3...Done.
Initializing Device 0 on core 4...Done.
Initializing Device 0 on core 5...Done.
Initializing Device 0 on core 6...Done.
Initializing Device 0 on core 7...Done.
Initializing Device 0 on core 8...Done.
Initializing Device 0 on core 9...Done.
Initializing Device 0 on core 10...Done.
Initializing Device 0 on core 11...Done.
Initializing Device 0 on core 12...Done.
Initializing Device 0 on core 13...Done.
Initializing Device 0 on core 14...Done.
Initializing Device 0 on core 15...Done.

  generated 0 of 0 mixed pair_coeff terms from geometric mixing rule
Setting up Verlet run ...
  Unit style    : lj
  Current step  : 0
  Time step     : 0.005
Per MPI rank memory allocation (min/avg/max) = 28.25 | 28.48 | 28.61 Mbytes
Step Temp E_pair E_mol TotEng Press 
       0         1.44   -6.7733684            0   -4.6133694   -5.0196695 
   10000   0.69769581   -5.6677149            0   -4.6211716   0.74371361 
Loop time of 143.872 on 16 procs for 10000 steps with 2048000 atoms

Performance: 30026.703 tau/day, 69.506 timesteps/s
99.1% CPU use with 16 MPI tasks x 1 OpenMP threads

MPI task timing breakdown:
Section |  min time  |  avg time  |  max time  |%varavg|  %CPU | %total
-----------------------------------------------------------------------
Pair    | 58.603     | 64.158     | 71.759     |  48.3 |  99.6 | 44.59
Neigh   | 0.00072838 | 0.000802   | 0.00085623 |   0.0 | 100.0 |  0.00
Comm    | 20.22      | 20.515     | 20.726     |   3.2 |  98.9 | 14.26
Output  | 0.00073471 | 0.00073669 | 0.00075876 |   0.0 | 100.0 |  0.00
Modify  | 18.464     | 19.159     | 19.938     |  10.3 |  99.0 | 13.32
Sync    | 25.72      | 33.194     | 38.309     |  61.4 |  98.0 | 23.07
Other   |            | 40.04      |            |       |       | 27.83

Nlocal:         128000 ave      128138 max      127831 min
Histogram: 1 0 1 2 4 2 1 2 1 2
Nghost:        47260.9 ave       47364 max       47175 min
Histogram: 2 2 0 2 4 2 1 1 0 2
Neighs:              0 ave           0 max           0 min
Histogram: 16 0 0 0 0 0 0 0 0 0

Total # of neighbors = 0
Ave neighs/atom = 0
Neighbor list builds = 500
Dangerous builds not checked


---------------------------------------------------------------------
      Device Time Info (average): 
---------------------------------------------------------------------
Data Transfer:   38.7801 s.
Neighbor copy:   0.0440 s.
Neighbor build:  4.4010 s.
Force calc:      8.8923 s.
Device Overhead: 16.0925 s.
Average split:   1.0000.
Lanes / atom:    4.
Vector width:    32.
Max Mem / Proc:  110.58 MB.
CPU Neighbor:    2.6249 s.
CPU Cast/Pack:   17.7493 s.
CPU Driver_Time: 0.2217 s.
CPU Idle_Time:   42.5646 s.
---------------------------------------------------------------------

Total wall time: 0:02:33
Intel(R) VTune(TM) Profiler 2022.1.0 collection completed successfully. Use the "aps --report /home/ubuntu/lammps/bench/aps_result_20220414" command to generate textual and HTML reports for the profiling session.
