LAMMPS (7 Jan 2022)
  using 1 OpenMP thread(s) per MPI task
Lattice spacing in x,y,z = 1.6795962 1.6795962 1.6795962
Created orthogonal box = (0 0 0) to (33.591924 33.591924 33.591924)
  2 by 3 by 4 MPI processor grid
Created 32000 atoms
  using lattice units in orthogonal box = (0 0 0) to (33.591924 33.591924 33.591924)
  create_atoms CPU = 0.001 seconds

CITE-CITE-CITE-CITE-CITE-CITE-CITE-CITE-CITE-CITE-CITE-CITE-CITE

Your simulation uses code contributions which should be cited:
- GPU package (short-range, long-range and three-body potentials):
The log file lists these citations in BibTeX format.

CITE-CITE-CITE-CITE-CITE-CITE-CITE-CITE-CITE-CITE-CITE-CITE-CITE


--------------------------------------------------------------------------
- Using acceleration for lj/cut:
-  with 3 proc(s) per device.
-  Horizontal vector operations: ENABLED
-  Shared memory system: No
--------------------------------------------------------------------------
Device 0: Tesla V100-SXM2-16GB, 80 CUs, 15/16 GB, 1.5 GHZ (Single Precision)
Device 1: Tesla V100-SXM2-16GB, 80 CUs, 1.5 GHZ (Single Precision)
Device 2: Tesla V100-SXM2-16GB, 80 CUs, 1.5 GHZ (Single Precision)
Device 3: Tesla V100-SXM2-16GB, 80 CUs, 1.5 GHZ (Single Precision)
Device 4: Tesla V100-SXM2-16GB, 80 CUs, 1.5 GHZ (Single Precision)
Device 5: Tesla V100-SXM2-16GB, 80 CUs, 1.5 GHZ (Single Precision)
Device 6: Tesla V100-SXM2-16GB, 80 CUs, 1.5 GHZ (Single Precision)
Device 7: Tesla V100-SXM2-16GB, 80 CUs, 1.5 GHZ (Single Precision)
--------------------------------------------------------------------------

Initializing Device and compiling on process 0...Done.
Initializing Devices 0-7 on core 0...Done.
Initializing Devices 0-7 on core 1...Done.
Initializing Devices 0-7 on core 2...Done.

  generated 0 of 0 mixed pair_coeff terms from geometric mixing rule
Setting up Verlet run ...
  Unit style    : lj
  Current step  : 0
  Time step     : 0.005
Per MPI rank memory allocation (min/avg/max) = 2.149 | 2.17 | 2.189 Mbytes
Step Temp E_pair E_mol TotEng Press 
       0         1.44   -6.7733684            0   -4.6134359   -5.0197072 
     100   0.75745327    -5.758506            0   -4.6223616   0.20726067 
Loop time of 0.0684793 on 24 procs for 100 steps with 32000 atoms

Performance: 630847.733 tau/day, 1460.296 timesteps/s
104.1% CPU use with 24 MPI tasks x 1 OpenMP threads

MPI task timing breakdown:
Section |  min time  |  avg time  |  max time  |%varavg| %total
---------------------------------------------------------------
Pair    | 0.013906   | 0.021473   | 0.029121   |   2.8 | 31.36
Neigh   | 1.751e-06  | 2.9987e-06 | 3.892e-06  |   0.0 |  0.00
Comm    | 0.036857   | 0.044615   | 0.052694   |   2.0 | 65.15
Output  | 8.3382e-05 | 0.00026605 | 0.00043081 |   0.0 |  0.39
Modify  | 0.00087727 | 0.0011767  | 0.0015159  |   0.4 |  1.72
Other   |            | 0.000945   |            |       |  1.38

Nlocal:        1333.33 ave        1365 max        1278 min
Histogram: 1 1 2 1 2 1 6 1 4 5
Nghost:           3223 ave        3289 max        3184 min
Histogram: 3 6 4 1 2 4 1 1 0 2
Neighs:              0 ave           0 max           0 min
Histogram: 24 0 0 0 0 0 0 0 0 0

Total # of neighbors = 0
Ave neighs/atom = 0
Neighbor list builds = 5
Dangerous builds not checked


---------------------------------------------------------------------
      Device Time Info (average): 
---------------------------------------------------------------------
Data Transfer:   0.0067 s.
Neighbor copy:   0.0003 s.
Neighbor build:  0.0015 s.
Force calc:      0.0175 s.
Device Overhead: 0.0376 s.
Average split:   1.0000.
Lanes / atom:    4.
Vector width:    32.
Max Mem / Proc:  1.92 MB.
CPU Neighbor:    0.0012 s.
CPU Cast/Pack:   0.0035 s.
CPU Driver_Time: 0.0055 s.
CPU Idle_Time:   0.0074 s.
---------------------------------------------------------------------

Total wall time: 0:00:29
Intel(R) VTune(TM) Profiler 2022.2.0 collection completed successfully. Use the "aps --report /home/ubuntu/lammps/bench/aps_result_20220609" command to generate textual and HTML reports for the profiling session.
