LAMMPS (7 Jan 2022)
  using 1 OpenMP thread(s) per MPI task
New timer settings: style=full  mode=sync  timeout=off
Lattice spacing in x,y,z = 1.6795962 1.6795962 1.6795962
Created orthogonal box = (0 0 0) to (134.3677 134.3677 134.3677)
  3 by 4 by 4 MPI processor grid
Created 2048000 atoms
  using lattice units in orthogonal box = (0 0 0) to (134.3677 134.3677 134.3677)
  create_atoms CPU = 0.009 seconds

CITE-CITE-CITE-CITE-CITE-CITE-CITE-CITE-CITE-CITE-CITE-CITE-CITE

Your simulation uses code contributions which should be cited:
- GPU package (short-range, long-range and three-body potentials):
The log file lists these citations in BibTeX format.

CITE-CITE-CITE-CITE-CITE-CITE-CITE-CITE-CITE-CITE-CITE-CITE-CITE


--------------------------------------------------------------------------
- Using acceleration for lj/cut:
-  with 6 proc(s) per device.
-  Horizontal vector operations: ENABLED
-  Shared memory system: No
--------------------------------------------------------------------------
Device 0: Tesla V100-SXM2-16GB, 80 CUs, 14/16 GB, 1.5 GHZ (Mixed Precision)
Device 1: Tesla V100-SXM2-16GB, 80 CUs, 1.5 GHZ (Mixed Precision)
Device 2: Tesla V100-SXM2-16GB, 80 CUs, 1.5 GHZ (Mixed Precision)
Device 3: Tesla V100-SXM2-16GB, 80 CUs, 1.5 GHZ (Mixed Precision)
Device 4: Tesla V100-SXM2-16GB, 80 CUs, 1.5 GHZ (Mixed Precision)
Device 5: Tesla V100-SXM2-16GB, 80 CUs, 1.5 GHZ (Mixed Precision)
Device 6: Tesla V100-SXM2-16GB, 80 CUs, 1.5 GHZ (Mixed Precision)
Device 7: Tesla V100-SXM2-16GB, 80 CUs, 1.5 GHZ (Mixed Precision)
--------------------------------------------------------------------------

Initializing Device and compiling on process 0...Done.
Initializing Devices 0-7 on core 0...Done.
Initializing Devices 0-7 on core 1...Done.
Initializing Devices 0-7 on core 2...Done.
Initializing Devices 0-7 on core 3...Done.
Initializing Devices 0-7 on core 4...Done.
Initializing Devices 0-7 on core 5...Done.

  generated 0 of 0 mixed pair_coeff terms from geometric mixing rule
Setting up Verlet run ...
  Unit style    : lj
  Current step  : 0
  Time step     : 0.005
Per MPI rank memory allocation (min/avg/max) = 11.81 | 12.04 | 12.23 Mbytes
Step Temp E_pair E_mol TotEng Press 
       0         1.44   -6.7733684            0   -4.6133694   -5.0196695 
   10000   0.69730566   -5.6671427            0   -4.6211848   0.74603546 
Loop time of 83.9158 on 48 procs for 10000 steps with 2048000 atoms

Performance: 51480.198 tau/day, 119.167 timesteps/s
94.9% CPU use with 48 MPI tasks x 1 OpenMP threads

MPI task timing breakdown:
Section |  min time  |  avg time  |  max time  |%varavg|  %CPU | %total
-----------------------------------------------------------------------
Pair    | 28.896     | 33.434     | 37.294     |  39.5 |  98.5 | 39.84
Neigh   | 0.00079379 | 0.00086473 | 0.00096625 |   0.0 | 100.0 |  0.00
Comm    | 15.853     | 16.128     | 16.326     |   3.1 |  96.1 | 19.22
Output  | 0.00053983 | 0.00054262 | 0.00057453 |   0.0 | 100.0 |  0.00
Modify  | 15.448     | 15.514     | 15.676     |   1.2 |  91.3 | 18.49
Sync    | 11.295     | 15.199     | 19.754     |  56.6 |  89.6 | 18.11
Other   |            | 18.84      |            |       |       | 22.45

Nlocal:        42666.7 ave       42762 max       42569 min
Histogram: 3 3 2 9 5 10 5 6 3 2
Nghost:        22675.8 ave       22792 max       22604 min
Histogram: 6 2 16 7 1 5 6 3 1 1
Neighs:              0 ave           0 max           0 min
Histogram: 48 0 0 0 0 0 0 0 0 0

Total # of neighbors = 0
Ave neighs/atom = 0
Neighbor list builds = 500
Dangerous builds not checked


---------------------------------------------------------------------
      Device Time Info (average): 
---------------------------------------------------------------------
Data Transfer:   21.4124 s.
Neighbor copy:   0.0561 s.
Neighbor build:  0.6878 s.
Force calc:      3.7994 s.
Device Overhead: 6.8410 s.
Average split:   1.0000.
Lanes / atom:    4.
Vector width:    32.
Max Mem / Proc:  38.35 MB.
CPU Neighbor:    1.1589 s.
CPU Cast/Pack:   12.1937 s.
CPU Driver_Time: 0.2025 s.
CPU Idle_Time:   18.8289 s.
---------------------------------------------------------------------

Total wall time: 0:01:51
Intel(R) VTune(TM) Profiler 2022.1.0 collection completed successfully. Use the "aps --report /home/ubuntu/lammps/bench/aps_result_20220414" command to generate textual and HTML reports for the profiling session.
