LAMMPS (7 Jan 2022)
  using 1 OpenMP thread(s) per MPI task
New timer settings: style=full  mode=sync  timeout=off
Lattice spacing in x,y,z = 1.6795962 1.6795962 1.6795962
Created orthogonal box = (0 0 0) to (67.183848 67.183848 67.183848)
  3 by 4 by 4 MPI processor grid
Created 256000 atoms
  using lattice units in orthogonal box = (0 0 0) to (67.183848 67.183848 67.183848)
  create_atoms CPU = 0.002 seconds

CITE-CITE-CITE-CITE-CITE-CITE-CITE-CITE-CITE-CITE-CITE-CITE-CITE

Your simulation uses code contributions which should be cited:
- GPU package (short-range, long-range and three-body potentials):
The log file lists these citations in BibTeX format.

CITE-CITE-CITE-CITE-CITE-CITE-CITE-CITE-CITE-CITE-CITE-CITE-CITE


--------------------------------------------------------------------------
- Using acceleration for lj/cut:
-  with 6 proc(s) per device.
-  Horizontal vector operations: ENABLED
-  Shared memory system: No
--------------------------------------------------------------------------
Device 0: Tesla V100-SXM2-16GB, 80 CUs, 14/16 GB, 1.5 GHZ (Mixed Precision)
Device 1: Tesla V100-SXM2-16GB, 80 CUs, 1.5 GHZ (Mixed Precision)
Device 2: Tesla V100-SXM2-16GB, 80 CUs, 1.5 GHZ (Mixed Precision)
Device 3: Tesla V100-SXM2-16GB, 80 CUs, 1.5 GHZ (Mixed Precision)
Device 4: Tesla V100-SXM2-16GB, 80 CUs, 1.5 GHZ (Mixed Precision)
Device 5: Tesla V100-SXM2-16GB, 80 CUs, 1.5 GHZ (Mixed Precision)
Device 6: Tesla V100-SXM2-16GB, 80 CUs, 1.5 GHZ (Mixed Precision)
Device 7: Tesla V100-SXM2-16GB, 80 CUs, 1.5 GHZ (Mixed Precision)
--------------------------------------------------------------------------

Initializing Device and compiling on process 0...Done.
Initializing Devices 0-7 on core 0...Done.
Initializing Devices 0-7 on core 1...Done.
Initializing Devices 0-7 on core 2...Done.
Initializing Devices 0-7 on core 3...Done.
Initializing Devices 0-7 on core 4...Done.
Initializing Devices 0-7 on core 5...Done.

  generated 0 of 0 mixed pair_coeff terms from geometric mixing rule
Setting up Verlet run ...
  Unit style    : lj
  Current step  : 0
  Time step     : 0.005
Per MPI rank memory allocation (min/avg/max) = 2.395 | 2.454 | 2.489 Mbytes
Step Temp E_pair E_mol TotEng Press 
       0         1.44   -6.7733683            0   -4.6133768   -5.0196737 
   10000   0.69594404    -5.665147            0    -4.621235   0.75430083 
Loop time of 14.733 on 48 procs for 10000 steps with 256000 atoms

Performance: 293220.190 tau/day, 678.750 timesteps/s
88.8% CPU use with 48 MPI tasks x 1 OpenMP threads

MPI task timing breakdown:
Section |  min time  |  avg time  |  max time  |%varavg|  %CPU | %total
-----------------------------------------------------------------------
Pair    | 5.5769     | 6.2238     | 6.6956     |  14.1 |  89.9 | 42.24
Neigh   | 0.00072248 | 0.00078617 | 0.00089674 |   0.0 | 100.0 |  0.01
Comm    | 1.8289     | 1.8851     | 1.9612     |   2.5 |  88.3 | 12.80
Output  | 0.00010796 | 0.00013159 | 0.00014963 |   0.0 | 100.0 |  0.00
Modify  | 0.27111    | 0.28136    | 0.31517    |   1.4 |  87.0 |  1.91
Sync    | 5.6791     | 6.1332     | 6.7159     |  13.8 |  87.9 | 41.63
Other   |            | 6.342      |            |       |       | 43.05

Nlocal:        5333.33 ave        5365 max        5275 min
Histogram: 1 1 2 1 3 10 11 4 11 4
Nghost:        6524.88 ave        6587 max        6469 min
Histogram: 2 2 7 7 9 7 10 1 1 2
Neighs:              0 ave           0 max           0 min
Histogram: 48 0 0 0 0 0 0 0 0 0

Total # of neighbors = 0
Ave neighs/atom = 0
Neighbor list builds = 500
Dangerous builds not checked


---------------------------------------------------------------------
      Device Time Info (average): 
---------------------------------------------------------------------
Data Transfer:   2.3253 s.
Neighbor copy:   0.0160 s.
Neighbor build:  0.2608 s.
Force calc:      3.0291 s.
Device Overhead: 6.8147 s.
Average split:   1.0000.
Lanes / atom:    4.
Vector width:    32.
Max Mem / Proc:  7.89 MB.
CPU Neighbor:    0.2236 s.
CPU Cast/Pack:   0.7943 s.
CPU Driver_Time: 0.1997 s.
CPU Idle_Time:   4.3654 s.
---------------------------------------------------------------------

Total wall time: 0:00:42
Intel(R) VTune(TM) Profiler 2022.1.0 collection completed successfully. Use the "aps --report /home/ubuntu/lammps/bench/aps_result_20220414" command to generate textual and HTML reports for the profiling session.
