LAMMPS (7 Jan 2022)
  using 1 OpenMP thread(s) per MPI task
New timer settings: style=full  mode=nosync  timeout=off
Lattice spacing in x,y,z = 1.6795962 1.6795962 1.6795962
Created orthogonal box = (0 0 0) to (33.591924 33.591924 33.591924)
  1 by 2 by 3 MPI processor grid
Created 32000 atoms
  using lattice units in orthogonal box = (0 0 0) to (33.591924 33.591924 33.591924)
  create_atoms CPU = 0.001 seconds

CITE-CITE-CITE-CITE-CITE-CITE-CITE-CITE-CITE-CITE-CITE-CITE-CITE

Your simulation uses code contributions which should be cited:
- GPU package (short-range, long-range and three-body potentials):
The log file lists these citations in BibTeX format.

CITE-CITE-CITE-CITE-CITE-CITE-CITE-CITE-CITE-CITE-CITE-CITE-CITE


--------------------------------------------------------------------------
- Using acceleration for lj/cut:
-  with 6 proc(s) per device.
-  Horizontal vector operations: ENABLED
-  Shared memory system: No
--------------------------------------------------------------------------
Device 0: Tesla V100-SXM2-16GB, 80 CUs, 14/16 GB, 1.5 GHZ (Mixed Precision)
--------------------------------------------------------------------------

Initializing Device and compiling on process 0...Done.
Initializing Device 0 on core 0...Done.
Initializing Device 0 on core 1...Done.
Initializing Device 0 on core 2...Done.
Initializing Device 0 on core 3...Done.
Initializing Device 0 on core 4...Done.
Initializing Device 0 on core 5...Done.

  generated 0 of 0 mixed pair_coeff terms from geometric mixing rule
Setting up Verlet run ...
  Unit style    : lj
  Current step  : 0
  Time step     : 0.005
Per MPI rank memory allocation (min/avg/max) = 2.547 | 2.581 | 2.617 Mbytes
Step Temp E_pair E_mol TotEng Press 
       0         1.44   -6.7733683            0   -4.6134358    -5.019707 
     100   0.75745333   -5.7585059            0   -4.6223614   0.20726081 
Loop time of 0.110723 on 6 procs for 100 steps with 32000 atoms

Performance: 390161.213 tau/day, 903.151 timesteps/s
92.6% CPU use with 6 MPI tasks x 1 OpenMP threads

MPI task timing breakdown:
Section |  min time  |  avg time  |  max time  |%varavg|  %CPU | %total
-----------------------------------------------------------------------
Pair    | 0.049935   | 0.054982   | 0.06182    |   1.6 |  92.8 | 49.66
Neigh   | 6.303e-06  | 7.1672e-06 | 9.836e-06  |   0.0 | 100.0 |  0.01
Comm    | 0.0429     | 0.050268   | 0.055557   |   1.8 |  92.5 | 45.40
Output  | 5.524e-05  | 0.00050249 | 0.00094682 |   0.0 |  99.9 |  0.45
Modify  | 0.0024084  | 0.0025968  | 0.0027807  |   0.3 |  84.9 |  2.35
Other   |            | 0.002367   |            |       |       |  2.14

Nlocal:        5333.33 ave        5413 max        5229 min
Histogram: 2 0 0 0 0 0 0 2 1 1
Nghost:        7305.83 ave        7399 max        7227 min
Histogram: 1 0 2 1 0 0 0 0 0 2
Neighs:              0 ave           0 max           0 min
Histogram: 6 0 0 0 0 0 0 0 0 0

Total # of neighbors = 0
Ave neighs/atom = 0
Neighbor list builds = 5
Dangerous builds not checked


---------------------------------------------------------------------
      Device Time Info (average): 
---------------------------------------------------------------------
Data Transfer:   0.0115 s.
Neighbor copy:   0.0001 s.
Neighbor build:  0.0031 s.
Force calc:      0.0332 s.
Device Overhead: 0.0668 s.
Average split:   1.0000.
Lanes / atom:    4.
Vector width:    32.
Max Mem / Proc:  4.83 MB.
CPU Neighbor:    0.0038 s.
CPU Cast/Pack:   0.0088 s.
CPU Driver_Time: 0.0024 s.
CPU Idle_Time:   0.0392 s.
---------------------------------------------------------------------

Total wall time: 0:00:03
Intel(R) VTune(TM) Profiler 2022.2.0 collection completed successfully. Use the "aps --report /home/ubuntu/lammps/bench/aps_result_20220420" command to generate textual and HTML reports for the profiling session.
