LAMMPS (7 Jan 2022)
  using 1 OpenMP thread(s) per MPI task
New timer settings: style=full  mode=sync  timeout=off
Lattice spacing in x,y,z = 1.6795962 1.6795962 1.6795962
Created orthogonal box = (0 0 0) to (100.77577 100.77577 100.77577)
  3 by 4 by 4 MPI processor grid
Created 864000 atoms
  using lattice units in orthogonal box = (0 0 0) to (100.77577 100.77577 100.77577)
  create_atoms CPU = 0.005 seconds

CITE-CITE-CITE-CITE-CITE-CITE-CITE-CITE-CITE-CITE-CITE-CITE-CITE

Your simulation uses code contributions which should be cited:
- GPU package (short-range, long-range and three-body potentials):
The log file lists these citations in BibTeX format.

CITE-CITE-CITE-CITE-CITE-CITE-CITE-CITE-CITE-CITE-CITE-CITE-CITE


--------------------------------------------------------------------------
- Using acceleration for lj/cut:
-  with 6 proc(s) per device.
-  Horizontal vector operations: ENABLED
-  Shared memory system: No
--------------------------------------------------------------------------
Device 0: Tesla V100-SXM2-16GB, 80 CUs, 14/16 GB, 1.5 GHZ (Mixed Precision)
Device 1: Tesla V100-SXM2-16GB, 80 CUs, 1.5 GHZ (Mixed Precision)
Device 2: Tesla V100-SXM2-16GB, 80 CUs, 1.5 GHZ (Mixed Precision)
Device 3: Tesla V100-SXM2-16GB, 80 CUs, 1.5 GHZ (Mixed Precision)
Device 4: Tesla V100-SXM2-16GB, 80 CUs, 1.5 GHZ (Mixed Precision)
Device 5: Tesla V100-SXM2-16GB, 80 CUs, 1.5 GHZ (Mixed Precision)
Device 6: Tesla V100-SXM2-16GB, 80 CUs, 1.5 GHZ (Mixed Precision)
Device 7: Tesla V100-SXM2-16GB, 80 CUs, 1.5 GHZ (Mixed Precision)
--------------------------------------------------------------------------

Initializing Device and compiling on process 0...Done.
Initializing Devices 0-7 on core 0...Done.
Initializing Devices 0-7 on core 1...Done.
Initializing Devices 0-7 on core 2...Done.
Initializing Devices 0-7 on core 3...Done.
Initializing Devices 0-7 on core 4...Done.
Initializing Devices 0-7 on core 5...Done.

  generated 0 of 0 mixed pair_coeff terms from geometric mixing rule
Setting up Verlet run ...
  Unit style    : lj
  Current step  : 0
  Time step     : 0.005
Per MPI rank memory allocation (min/avg/max) = 5.181 | 5.181 | 5.181 Mbytes
Step Temp E_pair E_mol TotEng Press 
       0         1.44   -6.7733675            0     -4.61337   -5.0196713 
   10000   0.69743366   -5.6673308            0   -4.6211815   0.74631611 
Loop time of 34.0931 on 48 procs for 10000 steps with 864000 atoms

Performance: 126711.837 tau/day, 293.314 timesteps/s
93.1% CPU use with 48 MPI tasks x 1 OpenMP threads

MPI task timing breakdown:
Section |  min time  |  avg time  |  max time  |%varavg|  %CPU | %total
-----------------------------------------------------------------------
Pair    | 12.787     | 15.498     | 17.862     |  35.0 |  94.2 | 45.46
Neigh   | 0.00076934 | 0.0008408  | 0.00092344 |   0.0 | 100.0 |  0.00
Comm    | 6.2786     | 6.407      | 6.5617     |   3.0 |  93.4 | 18.79
Output  | 0.00033698 | 0.00034156 | 0.00037234 |   0.0 | 100.0 |  0.00
Modify  | 2.3174     | 2.3621     | 2.4411     |   1.5 |  91.6 |  6.93
Sync    | 6.3086     | 8.6521     | 11.342     |  45.9 |  91.3 | 25.38
Other   |            | 9.825      |            |       |       | 28.82

Nlocal:          18000 ave       18071 max       17946 min
Histogram: 2 5 9 6 6 10 4 3 2 1
Nghost:        13383.3 ave       13480 max       13280 min
Histogram: 1 1 5 4 10 13 5 6 2 1
Neighs:              0 ave           0 max           0 min
Histogram: 48 0 0 0 0 0 0 0 0 0

Total # of neighbors = 0
Ave neighs/atom = 0
Neighbor list builds = 500
Dangerous builds not checked


---------------------------------------------------------------------
      Device Time Info (average): 
---------------------------------------------------------------------
Data Transfer:   7.1977 s.
Neighbor copy:   0.0321 s.
Neighbor build:  0.3578 s.
Force calc:      5.5456 s.
Device Overhead: 6.8175 s.
Average split:   1.0000.
Lanes / atom:    4.
Vector width:    32.
Max Mem / Proc:  15.34 MB.
CPU Neighbor:    0.5785 s.
CPU Cast/Pack:   4.0876 s.
CPU Driver_Time: 0.2000 s.
CPU Idle_Time:   9.7218 s.
---------------------------------------------------------------------

Total wall time: 0:01:02
Intel(R) VTune(TM) Profiler 2022.1.0 collection completed successfully. Use the "aps --report /home/ubuntu/lammps/bench/aps_result_20220414" command to generate textual and HTML reports for the profiling session.
