LAMMPS (7 Jan 2022)
  using 1 OpenMP thread(s) per MPI task
New timer settings: style=full  mode=sync  timeout=off
Reading data file ...
  orthogonal box = (-27.5 -38.5 -36.3646) to (27.5 38.5 36.3615)
  2 by 3 by 3 MPI processor grid
  reading atoms ...
  32000 atoms
  reading velocities ...
  32000 velocities
  scanning bonds ...
  4 = max bonds/atom
  scanning angles ...
  8 = max angles/atom
  scanning dihedrals ...
  18 = max dihedrals/atom
  scanning impropers ...
  2 = max impropers/atom
  reading bonds ...
  27723 bonds
  reading angles ...
  40467 angles
  reading dihedrals ...
  56829 dihedrals
  reading impropers ...
  1034 impropers
Finding 1-2 1-3 1-4 neighbors ...
  special bond factors lj:    0        0        0       
  special bond factors coul:  0        0        0       
     4 = max # of 1-2 neighbors
    12 = max # of 1-3 neighbors
    24 = max # of 1-4 neighbors
    26 = max # of special neighbors
  special bonds CPU = 0.006 seconds
  read_data CPU = 0.294 seconds
Finding SHAKE clusters ...
    1617 = # of size 2 clusters
    3633 = # of size 3 clusters
     747 = # of size 4 clusters
    4233 = # of frozen angles
  find clusters CPU = 0.003 seconds

CITE-CITE-CITE-CITE-CITE-CITE-CITE-CITE-CITE-CITE-CITE-CITE-CITE

Your simulation uses code contributions which should be cited:
- GPU package (short-range, long-range and three-body potentials):
The log file lists these citations in BibTeX format.

CITE-CITE-CITE-CITE-CITE-CITE-CITE-CITE-CITE-CITE-CITE-CITE-CITE

PPPM initialization ...
  using 12-bit tables for long-range coulomb (../kspace.cpp:340)
  G vector (1/distance) = 0.24883488
  grid = 25 32 32
  stencil order = 5
  estimated absolute RMS force accuracy = 0.035547797
  estimated relative force accuracy = 0.00010705113
  using single precision MKL FFT
  3d grid and FFT values/proc = 5202 1600

--------------------------------------------------------------------------
- Using acceleration for pppm:
-  with 3 proc(s) per device.
-  Horizontal vector operations: ENABLED
-  Shared memory system: No
--------------------------------------------------------------------------
Device 0: Tesla V100-SXM2-16GB, 80 CUs, 15/16 GB, 1.5 GHZ (Mixed Precision)
Device 1: Tesla V100-SXM2-16GB, 80 CUs, 1.5 GHZ (Mixed Precision)
Device 2: Tesla V100-SXM2-16GB, 80 CUs, 1.5 GHZ (Mixed Precision)
Device 3: Tesla V100-SXM2-16GB, 80 CUs, 1.5 GHZ (Mixed Precision)
Device 4: Tesla V100-SXM2-16GB, 80 CUs, 1.5 GHZ (Mixed Precision)
Device 5: Tesla V100-SXM2-16GB, 80 CUs, 1.5 GHZ (Mixed Precision)
--------------------------------------------------------------------------

Initializing Device and compiling on process 0...Done.
Initializing Devices 0-5 on core 0...Done.
Initializing Devices 0-5 on core 1...Done.
Initializing Devices 0-5 on core 2...Done.


--------------------------------------------------------------------------
- Using acceleration for lj/charmm/coul/long:
-  with 3 proc(s) per device.
-  Horizontal vector operations: ENABLED
-  Shared memory system: No
--------------------------------------------------------------------------
Device 0: Tesla V100-SXM2-16GB, 80 CUs, 15/16 GB, 1.5 GHZ (Mixed Precision)
Device 1: Tesla V100-SXM2-16GB, 80 CUs, 1.5 GHZ (Mixed Precision)
Device 2: Tesla V100-SXM2-16GB, 80 CUs, 1.5 GHZ (Mixed Precision)
Device 3: Tesla V100-SXM2-16GB, 80 CUs, 1.5 GHZ (Mixed Precision)
Device 4: Tesla V100-SXM2-16GB, 80 CUs, 1.5 GHZ (Mixed Precision)
Device 5: Tesla V100-SXM2-16GB, 80 CUs, 1.5 GHZ (Mixed Precision)
--------------------------------------------------------------------------

Initializing Device and compiling on process 0...Done.
Initializing Devices 0-5 on core 0...Done.
Initializing Devices 0-5 on core 1...Done.
Initializing Devices 0-5 on core 2...Done.

  generated 2278 of 2278 mixed pair_coeff terms from arithmetic mixing rule
Setting up Verlet run ...
  Unit style    : real
  Current step  : 0
  Time step     : 2
Per MPI rank memory allocation (min/avg/max) = 18.27 | 18.41 | 18.7 Mbytes
---------------- Step        0 ----- CPU =      0.0000 (sec) ----------------
TotEng   =    -25356.2687 KinEng   =     21444.8313 Temp     =       299.0397 
PotEng   =    -46801.1000 E_bond   =      2537.9940 E_angle  =     10921.3742 
E_dihed  =      5211.7865 E_impro  =       213.5116 E_vdwl   =     -2307.8635 
E_coul   =    207025.8394 E_long   =   -270403.7422 Press    =      -149.3321 
Volume   =    307995.0335 
---------------- Step       50 ----- CPU =      0.1934 (sec) ----------------
TotEng   =    -25330.0801 KinEng   =     21500.9984 Temp     =       299.8229 
PotEng   =    -46831.0786 E_bond   =      2471.7037 E_angle  =     10836.5109 
E_dihed  =      5239.6319 E_impro  =       227.1218 E_vdwl   =     -1993.2892 
E_coul   =    206797.6436 E_long   =   -270410.4013 Press    =       237.6580 
Volume   =    308031.6775 
---------------- Step      100 ----- CPU =      0.3824 (sec) ----------------
TotEng   =    -25290.7939 KinEng   =     21591.9061 Temp     =       301.0906 
PotEng   =    -46882.6999 E_bond   =      2567.9808 E_angle  =     10781.9581 
E_dihed  =      5198.7495 E_impro  =       216.7865 E_vdwl   =     -1902.6688 
E_coul   =    206659.4761 E_long   =   -270404.9821 Press    =         6.7224 
Volume   =    308134.2322 
---------------- Step      150 ----- CPU =      0.5658 (sec) ----------------
TotEng   =    -25258.1287 KinEng   =     21529.6597 Temp     =       300.2226 
PotEng   =    -46787.7885 E_bond   =      2556.3453 E_angle  =     10852.7817 
E_dihed  =      5265.2331 E_impro  =       203.0688 E_vdwl   =     -2066.1535 
E_coul   =    206797.4216 E_long   =   -270396.4854 Press    =       251.4578 
Volume   =    308515.2405 
---------------- Step      200 ----- CPU =      0.7553 (sec) ----------------
TotEng   =    -25078.8906 KinEng   =     21571.1822 Temp     =       300.8016 
PotEng   =    -46650.0729 E_bond   =      2488.6933 E_angle  =     11073.4444 
E_dihed  =      5221.7539 E_impro  =       232.8570 E_vdwl   =     -2167.6269 
E_coul   =    206902.9259 E_long   =   -270402.1203 Press    =        20.8077 
Volume   =    308997.5401 
---------------- Step      250 ----- CPU =      0.9452 (sec) ----------------
TotEng   =    -24944.3331 KinEng   =     21547.6995 Temp     =       300.4741 
PotEng   =    -46492.0326 E_bond   =      2542.5541 E_angle  =     11105.4913 
E_dihed  =      5239.6416 E_impro  =       212.3499 E_vdwl   =     -2168.9041 
E_coul   =    206988.9824 E_long   =   -270412.1477 Press    =      -169.8897 
Volume   =    309388.1004 
---------------- Step      300 ----- CPU =      1.1303 (sec) ----------------
TotEng   =    -25000.4072 KinEng   =     21499.0063 Temp     =       299.7951 
PotEng   =    -46499.4135 E_bond   =      2557.8923 E_angle  =     10921.8313 
E_dihed  =      5211.0662 E_impro  =       222.1970 E_vdwl   =     -2217.6967 
E_coul   =    207192.0434 E_long   =   -270386.7469 Press    =      -369.0757 
Volume   =    309663.6417 
---------------- Step      350 ----- CPU =      1.3270 (sec) ----------------
TotEng   =    -25131.3204 KinEng   =     21468.8821 Temp     =       299.3751 
PotEng   =    -46600.2025 E_bond   =      2580.3975 E_angle  =     10951.5851 
E_dihed  =      5250.7497 E_impro  =       212.6717 E_vdwl   =     -2168.8915 
E_coul   =    206974.1734 E_long   =   -270400.8884 Press    =      -337.6490 
Volume   =    309800.8717 
---------------- Step      400 ----- CPU =      1.5246 (sec) ----------------
TotEng   =    -25206.9510 KinEng   =     21432.9558 Temp     =       298.8741 
PotEng   =    -46639.9068 E_bond   =      2526.7276 E_angle  =     10965.6009 
E_dihed  =      5205.6423 E_impro  =       212.9132 E_vdwl   =     -2195.4960 
E_coul   =    207058.1701 E_long   =   -270413.4650 Press    =       186.1614 
Volume   =    309817.4982 
---------------- Step      450 ----- CPU =      1.7097 (sec) ----------------
TotEng   =    -25177.0448 KinEng   =     21491.4241 Temp     =       299.6894 
PotEng   =    -46668.4689 E_bond   =      2498.4474 E_angle  =     10956.6486 
E_dihed  =      5241.4086 E_impro  =       225.5457 E_vdwl   =     -2208.0879 
E_coul   =    207008.8434 E_long   =   -270391.2748 Press    =       204.5026 
Volume   =    309774.3875 
---------------- Step      500 ----- CPU =      1.8980 (sec) ----------------
TotEng   =    -25022.5032 KinEng   =     21625.5560 Temp     =       301.5598 
PotEng   =    -46648.0592 E_bond   =      2565.8964 E_angle  =     10934.0747 
E_dihed  =      5260.0907 E_impro  =       218.0060 E_vdwl   =     -2195.4739 
E_coul   =    206960.2675 E_long   =   -270390.9207 Press    =      -289.2737 
Volume   =    309764.6096 
---------------- Step      550 ----- CPU =      2.0816 (sec) ----------------
TotEng   =    -24942.1076 KinEng   =     21619.9392 Temp     =       301.4815 
PotEng   =    -46562.0468 E_bond   =      2507.6122 E_angle  =     10939.5112 
E_dihed  =      5197.2242 E_impro  =       221.4648 E_vdwl   =     -2014.4826 
E_coul   =    206976.2002 E_long   =   -270389.5768 Press    =       370.5946 
Volume   =    309751.3729 
---------------- Step      600 ----- CPU =      2.2699 (sec) ----------------
TotEng   =    -24958.8851 KinEng   =     21692.2559 Temp     =       302.4899 
PotEng   =    -46651.1410 E_bond   =      2565.5727 E_angle  =     10865.4189 
E_dihed  =      5240.9795 E_impro  =       219.5726 E_vdwl   =     -2163.0278 
E_coul   =    207026.2494 E_long   =   -270405.9063 Press    =        90.4491 
Volume   =    309904.0604 
Loop time of 2.27004 on 18 procs for 600 steps with 32000 atoms

Performance: 45.673 ns/day, 0.525 hours/ns, 264.312 timesteps/s
97.8% CPU use with 18 MPI tasks x 1 OpenMP threads

MPI task timing breakdown:
Section |  min time  |  avg time  |  max time  |%varavg|  %CPU | %total
-----------------------------------------------------------------------
Pair    | 0.22681    | 0.26469    | 0.31107    |   4.5 |  97.5 | 11.66
Bond    | 0.2109     | 0.37231    | 0.64168    |  25.5 |  98.3 | 16.40
Kspace  | 0.48856    | 0.48912    | 0.49013    |   0.1 |  97.4 | 21.55
Neigh   | 0.039119   | 0.039145   | 0.039178   |   0.0 |  94.9 |  1.72
Comm    | 0.19979    | 0.20292    | 0.20645    |   0.4 |  97.1 |  8.94
Output  | 0.00086876 | 0.0008886  | 0.0011775  |   0.0 | 100.0 |  0.04
Modify  | 0.34933    | 0.41931    | 0.44341    |   5.1 |  98.1 | 18.47
Sync    | 0.21251    | 0.46195    | 0.68919    |  22.5 |  98.4 | 20.35
Other   |            | 0.4817     |            |       |       | 21.22

Nlocal:        1777.78 ave        1832 max        1725 min
Histogram: 2 3 1 0 2 3 3 0 1 3
Nghost:        11021.8 ave       11154 max       10881 min
Histogram: 2 2 1 2 4 1 0 0 3 3
Neighs:              0 ave           0 max           0 min
Histogram: 18 0 0 0 0 0 0 0 0 0

Total # of neighbors = 0
Ave neighs/atom = 0
Ave special neighs/atom = 7.431875
Neighbor list builds = 67
Dangerous builds = 0


---------------------------------------------------------------------
      Device Time Info (average): 
---------------------------------------------------------------------
Data Transfer:   0.0154 s.
Neighbor copy:   0.0312 s.
Neighbor build:  0.1179 s.
Force calc:      0.3591 s.
Device Overhead: 0.1840 s.
Average split:   1.0000.
Lanes / atom:    8.
Vector width:    32.
Max Mem / Proc:  9.01 MB.
CPU Neighbor:    0.0231 s.
CPU Cast/Pack:   0.0522 s.
CPU Driver_Time: 0.0104 s.
CPU Idle_Time:   0.0022 s.
---------------------------------------------------------------------



---------------------------------------------------------------------
    Device Time Info (average) for kspace: 
---------------------------------------------------------------------
Data Out:        0.0081 s.
Data In:         0.0331 s.
Kernel (map):    0.2182 s.
Kernel (rho):    0.0672 s.
Force interp:    0.1100 s.
Total rho:       0.2935 s.
Total interp:    0.1431 s.
Force copy:      0.0098 s.
Total:           0.4464 s.
CPU Poisson:     0.3540 s.
CPU Data Cast:   0.0042 s.
CPU Idle Time:   0.1114 s.
Max Mem / Proc:  0.65 MB.
---------------------------------------------------------------------

Total wall time: 0:00:12
Intel(R) VTune(TM) Profiler 2022.1.0 collection completed successfully. Use the "aps --report /home/ubuntu/lammps/bench/aps_result_20220414" command to generate textual and HTML reports for the profiling session.
