LAMMPS (7 Jan 2022)
  using 1 OpenMP thread(s) per MPI task
Reading data file ...
  orthogonal box = (-27.5 -38.5 -36.3646) to (27.5 38.5 36.3615)
  3 by 4 by 4 MPI processor grid
  reading atoms ...
  32000 atoms
  reading velocities ...
  32000 velocities
  scanning bonds ...
  4 = max bonds/atom
  scanning angles ...
  8 = max angles/atom
  scanning dihedrals ...
  18 = max dihedrals/atom
  scanning impropers ...
  2 = max impropers/atom
  reading bonds ...
  27723 bonds
  reading angles ...
  40467 angles
  reading dihedrals ...
  56829 dihedrals
  reading impropers ...
  1034 impropers
Finding 1-2 1-3 1-4 neighbors ...
  special bond factors lj:    0        0        0       
  special bond factors coul:  0        0        0       
     4 = max # of 1-2 neighbors
    12 = max # of 1-3 neighbors
    24 = max # of 1-4 neighbors
    26 = max # of special neighbors
  special bonds CPU = 0.007 seconds
  read_data CPU = 0.432 seconds
Replicating atoms ...
  orthogonal box = (-27.5 -38.5 -36.3646) to (137.5 192.5 181.8137)
  3 by 4 by 4 MPI processor grid
  864000 atoms
  748521 bonds
  1092609 angles
  1534383 dihedrals
  27918 impropers
Finding 1-2 1-3 1-4 neighbors ...
  special bond factors lj:    0        0        0       
  special bond factors coul:  0        0        0       
     4 = max # of 1-2 neighbors
    12 = max # of 1-3 neighbors
    24 = max # of 1-4 neighbors
    26 = max # of special neighbors
  special bonds CPU = 0.045 seconds
  replicate CPU = 0.106 seconds
Finding SHAKE clusters ...
   43659 = # of size 2 clusters
   98091 = # of size 3 clusters
   20169 = # of size 4 clusters
  114291 = # of frozen angles
  find clusters CPU = 0.021 seconds

CITE-CITE-CITE-CITE-CITE-CITE-CITE-CITE-CITE-CITE-CITE-CITE-CITE

Your simulation uses code contributions which should be cited:
- GPU package (short-range, long-range and three-body potentials):
The log file lists these citations in BibTeX format.

CITE-CITE-CITE-CITE-CITE-CITE-CITE-CITE-CITE-CITE-CITE-CITE-CITE

PPPM initialization ...
  using 12-bit tables for long-range coulomb (../kspace.cpp:340)
  G vector (1/distance) = 0.28871234
  grid = 120 160 150
  stencil order = 5
  estimated absolute RMS force accuracy = 0.0041674947
  estimated relative force accuracy = 1.2550286e-05
  using single precision MKL FFT
  3d grid and FFT values/proc = 97196 76800

--------------------------------------------------------------------------
- Using acceleration for pppm:
-  with 8 proc(s) per device.
-  Horizontal vector operations: ENABLED
-  Shared memory system: No
--------------------------------------------------------------------------
Device 0: Tesla V100-SXM2-16GB, 80 CUs, 13/16 GB, 1.5 GHZ (Mixed Precision)
Device 1: Tesla V100-SXM2-16GB, 80 CUs, 1.5 GHZ (Mixed Precision)
Device 2: Tesla V100-SXM2-16GB, 80 CUs, 1.5 GHZ (Mixed Precision)
Device 3: Tesla V100-SXM2-16GB, 80 CUs, 1.5 GHZ (Mixed Precision)
Device 4: Tesla V100-SXM2-16GB, 80 CUs, 1.5 GHZ (Mixed Precision)
Device 5: Tesla V100-SXM2-16GB, 80 CUs, 1.5 GHZ (Mixed Precision)
--------------------------------------------------------------------------

Initializing Device and compiling on process 0...Done.
Initializing Devices 0-5 on core 0...Done.
Initializing Devices 0-5 on core 1...Done.
Initializing Devices 0-5 on core 2...Done.
Initializing Devices 0-5 on core 3...Done.
Initializing Devices 0-5 on core 4...Done.
Initializing Devices 0-5 on core 5...Done.
Initializing Devices 0-5 on core 6...Done.
Initializing Devices 0-5 on core 7...Done.


--------------------------------------------------------------------------
- Using acceleration for lj/charmm/coul/long:
-  with 8 proc(s) per device.
-  Horizontal vector operations: ENABLED
-  Shared memory system: No
--------------------------------------------------------------------------
Device 0: Tesla V100-SXM2-16GB, 80 CUs, 13/16 GB, 1.5 GHZ (Mixed Precision)
Device 1: Tesla V100-SXM2-16GB, 80 CUs, 1.5 GHZ (Mixed Precision)
Device 2: Tesla V100-SXM2-16GB, 80 CUs, 1.5 GHZ (Mixed Precision)
Device 3: Tesla V100-SXM2-16GB, 80 CUs, 1.5 GHZ (Mixed Precision)
Device 4: Tesla V100-SXM2-16GB, 80 CUs, 1.5 GHZ (Mixed Precision)
Device 5: Tesla V100-SXM2-16GB, 80 CUs, 1.5 GHZ (Mixed Precision)
--------------------------------------------------------------------------

Initializing Device and compiling on process 0...Done.
Initializing Devices 0-5 on core 0...Done.
Initializing Devices 0-5 on core 1...Done.
Initializing Devices 0-5 on core 2...Done.
Initializing Devices 0-5 on core 3...Done.
Initializing Devices 0-5 on core 4...Done.
Initializing Devices 0-5 on core 5...Done.
Initializing Devices 0-5 on core 6...Done.
Initializing Devices 0-5 on core 7...Done.

  generated 2278 of 2278 mixed pair_coeff terms from arithmetic mixing rule
Setting up Verlet run ...
  Unit style    : real
  Current step  : 0
  Time step     : 2
Per MPI rank memory allocation (min/avg/max) = 79.03 | 79.26 | 80.31 Mbytes
---------------- Step        0 ----- CPU =      0.0000 (sec) ----------------
TotEng   =   -684685.0277 KinEng   =    579010.4447 Temp     =       299.0277 
PotEng   =  -1263695.4723 E_bond   =     68525.8383 E_angle  =    294877.1036 
E_dihed  =    140718.2355 E_impro  =      5764.8128 E_vdwl   =    -62312.3570 
E_coul   =   6754313.6565 E_long   =  -8465582.7621 Press    =      -152.7189 
Volume   =   8315865.9045 
---------------- Step       50 ----- CPU =      2.5974 (sec) ----------------
TotEng   =   -683977.1303 KinEng   =    580538.5624 Temp     =       299.8169 
PotEng   =  -1264515.6927 E_bond   =     66735.4034 E_angle  =    292592.3659 
E_dihed  =    141466.3533 E_impro  =      6132.7429 E_vdwl   =    -53798.6133 
E_coul   =   6748223.5504 E_long   =  -8465867.4953 Press    =       235.0043 
Volume   =   8316840.2428 
---------------- Step      100 ----- CPU =      5.1962 (sec) ----------------
TotEng   =   -682765.6185 KinEng   =    582927.0065 Temp     =       301.0504 
PotEng   =  -1265692.6250 E_bond   =     69333.0039 E_angle  =    291109.5474 
E_dihed  =    140363.1035 E_impro  =      5853.7500 E_vdwl   =    -51319.2622 
E_coul   =   6744664.7297 E_long   =  -8465697.4973 Press    =        12.2669 
Volume   =   8319577.2468 
Loop time of 5.19635 on 48 procs for 100 steps with 864000 atoms

Performance: 3.325 ns/day, 7.217 hours/ns, 19.244 timesteps/s
95.2% CPU use with 48 MPI tasks x 1 OpenMP threads

MPI task timing breakdown:
Section |  min time  |  avg time  |  max time  |%varavg| %total
---------------------------------------------------------------
Pair    | 0.21083    | 0.33789    | 0.46956    |  13.4 |  6.50
Bond    | 0.51629    | 0.64567    | 0.78114    |  13.2 | 12.43
Kspace  | 1.5928     | 1.7679     | 1.974      |   9.8 | 34.02
Neigh   | 0.1556     | 0.15944    | 0.16287    |   0.4 |  3.07
Comm    | 0.29085    | 0.37498    | 0.41687    |   6.8 |  7.22
Output  | 0.00033855 | 0.00034546 | 0.00039809 |   0.0 |  0.01
Modify  | 1.5706     | 1.7095     | 1.9836     |   7.7 | 32.90
Other   |            | 0.2006     |            |       |  3.86

Nlocal:          18000 ave       18186 max       17781 min
Histogram: 3 3 3 9 3 9 3 9 3 3
Nghost:        34682.8 ave       34877 max       34415 min
Histogram: 6 0 0 6 6 6 3 9 3 9
Neighs:              0 ave           0 max           0 min
Histogram: 48 0 0 0 0 0 0 0 0 0

Total # of neighbors = 0
Ave neighs/atom = 0
Ave special neighs/atom = 7.431875
Neighbor list builds = 11
Dangerous builds = 0


---------------------------------------------------------------------
      Device Time Info (average): 
---------------------------------------------------------------------
Data Transfer:   0.0102 s.
Neighbor copy:   0.0660 s.
Neighbor build:  0.0944 s.
Force calc:      0.2468 s.
Device Overhead: 0.0919 s.
Average split:   1.0000.
Lanes / atom:    8.
Vector width:    32.
Max Mem / Proc:  86.59 MB.
CPU Neighbor:    0.0519 s.
CPU Cast/Pack:   0.1012 s.
CPU Driver_Time: 0.0027 s.
CPU Idle_Time:   0.0022 s.
---------------------------------------------------------------------



---------------------------------------------------------------------
    Device Time Info (average) for kspace: 
---------------------------------------------------------------------
Data Out:        0.0096 s.
Data In:         0.1888 s.
Kernel (map):    0.1520 s.
Kernel (rho):    0.0182 s.
Force interp:    0.0452 s.
Total rho:       0.1797 s.
Total interp:    0.2340 s.
Force copy:      0.0202 s.
Total:           0.4340 s.
CPU Poisson:     1.6714 s.
CPU Data Cast:   0.0110 s.
CPU Idle Time:   0.1079 s.
Max Mem / Proc:  15.25 MB.
---------------------------------------------------------------------

Total wall time: 0:01:08
Intel(R) VTune(TM) Profiler 2022.2.0 collection completed successfully. Use the "aps --report /home/ubuntu/lammps/bench/aps_result_20220531" command to generate textual and HTML reports for the profiling session.
