LAMMPS (7 Jan 2022)
  using 1 OpenMP thread(s) per MPI task
Reading data file ...
  orthogonal box = (-27.5 -38.5 -36.3646) to (27.5 38.5 36.3615)
  2 by 4 by 3 MPI processor grid
  reading atoms ...
  32000 atoms
  reading velocities ...
  32000 velocities
  scanning bonds ...
  4 = max bonds/atom
  scanning angles ...
  8 = max angles/atom
  scanning dihedrals ...
  18 = max dihedrals/atom
  scanning impropers ...
  2 = max impropers/atom
  reading bonds ...
  27723 bonds
  reading angles ...
  40467 angles
  reading dihedrals ...
  56829 dihedrals
  reading impropers ...
  1034 impropers
Finding 1-2 1-3 1-4 neighbors ...
  special bond factors lj:    0        0        0       
  special bond factors coul:  0        0        0       
     4 = max # of 1-2 neighbors
    12 = max # of 1-3 neighbors
    24 = max # of 1-4 neighbors
    26 = max # of special neighbors
  special bonds CPU = 0.006 seconds
  read_data CPU = 0.398 seconds
Finding SHAKE clusters ...
    1617 = # of size 2 clusters
    3633 = # of size 3 clusters
     747 = # of size 4 clusters
    4233 = # of frozen angles
  find clusters CPU = 0.003 seconds

CITE-CITE-CITE-CITE-CITE-CITE-CITE-CITE-CITE-CITE-CITE-CITE-CITE

Your simulation uses code contributions which should be cited:
- GPU package (short-range, long-range and three-body potentials):
The log file lists these citations in BibTeX format.

CITE-CITE-CITE-CITE-CITE-CITE-CITE-CITE-CITE-CITE-CITE-CITE-CITE

PPPM initialization ...
  using 12-bit tables for long-range coulomb (../kspace.cpp:340)
  G vector (1/distance) = 0.29123956
  grid = 45 54 50
  stencil order = 5
  estimated absolute RMS force accuracy = 0.0035990372
  estimated relative force accuracy = 1.0838394e-05
  using single precision MKL FFT
  3d grid and FFT values/proc = 13340 7290

--------------------------------------------------------------------------
- Using acceleration for pppm:
-  with 3 proc(s) per device.
-  Horizontal vector operations: ENABLED
-  Shared memory system: No
--------------------------------------------------------------------------
Device 0: Tesla V100-SXM2-16GB, 80 CUs, 15/16 GB, 1.5 GHZ (Mixed Precision)
Device 1: Tesla V100-SXM2-16GB, 80 CUs, 1.5 GHZ (Mixed Precision)
Device 2: Tesla V100-SXM2-16GB, 80 CUs, 1.5 GHZ (Mixed Precision)
Device 3: Tesla V100-SXM2-16GB, 80 CUs, 1.5 GHZ (Mixed Precision)
Device 4: Tesla V100-SXM2-16GB, 80 CUs, 1.5 GHZ (Mixed Precision)
Device 5: Tesla V100-SXM2-16GB, 80 CUs, 1.5 GHZ (Mixed Precision)
Device 6: Tesla V100-SXM2-16GB, 80 CUs, 1.5 GHZ (Mixed Precision)
Device 7: Tesla V100-SXM2-16GB, 80 CUs, 1.5 GHZ (Mixed Precision)
--------------------------------------------------------------------------

Initializing Device and compiling on process 0...Done.
Initializing Devices 0-7 on core 0...Done.
Initializing Devices 0-7 on core 1...Done.
Initializing Devices 0-7 on core 2...Done.


--------------------------------------------------------------------------
- Using acceleration for lj/charmm/coul/long:
-  with 3 proc(s) per device.
-  Horizontal vector operations: ENABLED
-  Shared memory system: No
--------------------------------------------------------------------------
Device 0: Tesla V100-SXM2-16GB, 80 CUs, 15/16 GB, 1.5 GHZ (Mixed Precision)
Device 1: Tesla V100-SXM2-16GB, 80 CUs, 1.5 GHZ (Mixed Precision)
Device 2: Tesla V100-SXM2-16GB, 80 CUs, 1.5 GHZ (Mixed Precision)
Device 3: Tesla V100-SXM2-16GB, 80 CUs, 1.5 GHZ (Mixed Precision)
Device 4: Tesla V100-SXM2-16GB, 80 CUs, 1.5 GHZ (Mixed Precision)
Device 5: Tesla V100-SXM2-16GB, 80 CUs, 1.5 GHZ (Mixed Precision)
Device 6: Tesla V100-SXM2-16GB, 80 CUs, 1.5 GHZ (Mixed Precision)
Device 7: Tesla V100-SXM2-16GB, 80 CUs, 1.5 GHZ (Mixed Precision)
--------------------------------------------------------------------------

Initializing Device and compiling on process 0...Done.
Initializing Devices 0-7 on core 0...Done.
Initializing Devices 0-7 on core 1...Done.
Initializing Devices 0-7 on core 2...Done.

  generated 2278 of 2278 mixed pair_coeff terms from arithmetic mixing rule
Setting up Verlet run ...
  Unit style    : real
  Current step  : 0
  Time step     : 2
Per MPI rank memory allocation (min/avg/max) = 18.49 | 18.65 | 18.91 Mbytes
---------------- Step        0 ----- CPU =      0.0000 (sec) ----------------
TotEng   =    -25358.7422 KinEng   =     21444.8313 Temp     =       299.0397 
PotEng   =    -46803.5735 E_bond   =      2537.9940 E_angle  =     10921.3742 
E_dihed  =      5211.7865 E_impro  =       213.5116 E_vdwl   =     -2307.8635 
E_coul   =    252888.7510 E_long   =   -316269.1272 Press    =      -152.7826 
Volume   =    307995.0335 
---------------- Step       50 ----- CPU =      0.3022 (sec) ----------------
TotEng   =    -25333.3250 KinEng   =     21500.9261 Temp     =       299.8219 
PotEng   =    -46834.2511 E_bond   =      2471.6404 E_angle  =     10836.6046 
E_dihed  =      5239.4719 E_impro  =       227.1338 E_vdwl   =     -1992.5856 
E_coul   =    252663.4903 E_long   =   -316280.0064 Press    =       234.9358 
Volume   =    308031.0998 
---------------- Step      100 ----- CPU =      0.5730 (sec) ----------------
TotEng   =    -25289.9426 KinEng   =     21588.3534 Temp     =       301.0410 
PotEng   =    -46878.2960 E_bond   =      2567.8200 E_angle  =     10781.4119 
E_dihed  =      5198.5505 E_impro  =       216.7999 E_vdwl   =     -1900.6527 
E_coul   =    252531.4828 E_long   =   -316273.7084 Press    =        12.3264 
Volume   =    308132.3434 
---------------- Step      150 ----- CPU =      0.8352 (sec) ----------------
TotEng   =    -25257.5750 KinEng   =     21552.3157 Temp     =       300.5385 
PotEng   =    -46809.8907 E_bond   =      2555.7219 E_angle  =     10856.1429 
E_dihed  =      5264.1214 E_impro  =       203.0458 E_vdwl   =     -2061.2315 
E_coul   =    252630.8244 E_long   =   -316258.5156 Press    =       248.1225 
Volume   =    308514.1743 
---------------- Step      200 ----- CPU =      1.0876 (sec) ----------------
TotEng   =    -25061.4113 KinEng   =     21489.4011 Temp     =       299.6612 
PotEng   =    -46550.8124 E_bond   =      2492.2099 E_angle  =     11073.3811 
E_dihed  =      5224.5355 E_impro  =       232.2825 E_vdwl   =     -2120.4139 
E_coul   =    252827.5950 E_long   =   -316280.4025 Press    =        89.9248 
Volume   =    308993.3841 
---------------- Step      250 ----- CPU =      1.3480 (sec) ----------------
TotEng   =    -24880.7987 KinEng   =     21547.0959 Temp     =       300.4657 
PotEng   =    -46427.8946 E_bond   =      2555.8073 E_angle  =     11112.1892 
E_dihed  =      5253.2208 E_impro  =       221.0467 E_vdwl   =     -2193.3008 
E_coul   =    252898.5496 E_long   =   -316275.4074 Press    =      -166.9208 
Volume   =    309415.6487 
---------------- Step      300 ----- CPU =      1.6073 (sec) ----------------
TotEng   =    -24878.2130 KinEng   =     21558.4571 Temp     =       300.6241 
PotEng   =    -46436.6701 E_bond   =      2563.5474 E_angle  =     10922.1851 
E_dihed  =      5229.7567 E_impro  =       225.2275 E_vdwl   =     -2132.9293 
E_coul   =    253013.8894 E_long   =   -316258.3469 Press    =      -363.8600 
Volume   =    309775.3988 
---------------- Step      350 ----- CPU =      1.8654 (sec) ----------------
TotEng   =    -25045.9618 KinEng   =     21542.2429 Temp     =       300.3980 
PotEng   =    -46588.2047 E_bond   =      2592.8603 E_angle  =     11017.7439 
E_dihed  =      5221.8025 E_impro  =       207.1196 E_vdwl   =     -2214.5243 
E_coul   =    252847.7910 E_long   =   -316260.9977 Press    =      -437.1023 
Volume   =    310055.5749 
---------------- Step      400 ----- CPU =      2.1192 (sec) ----------------
TotEng   =    -25233.5265 KinEng   =     21409.1193 Temp     =       298.5417 
PotEng   =    -46642.6458 E_bond   =      2541.1492 E_angle  =     11000.1874 
E_dihed  =      5171.6432 E_impro  =       216.9677 E_vdwl   =     -2259.3730 
E_coul   =    252955.9164 E_long   =   -316269.1366 Press    =       146.9986 
Volume   =    310140.8427 
---------------- Step      450 ----- CPU =      2.3767 (sec) ----------------
TotEng   =    -25270.5966 KinEng   =     21451.8454 Temp     =       299.1375 
PotEng   =    -46722.4420 E_bond   =      2522.2666 E_angle  =     10880.4236 
E_dihed  =      5278.5723 E_impro  =       222.7884 E_vdwl   =     -2211.6300 
E_coul   =    252856.6169 E_long   =   -316271.4798 Press    =       227.7204 
Volume   =    310088.5523 
---------------- Step      500 ----- CPU =      2.6388 (sec) ----------------
TotEng   =    -25077.4722 KinEng   =     21442.5371 Temp     =       299.0077 
PotEng   =    -46520.0092 E_bond   =      2605.0265 E_angle  =     10942.2112 
E_dihed  =      5224.7770 E_impro  =       212.0305 E_vdwl   =     -2194.1975 
E_coul   =    252941.5091 E_long   =   -316251.3659 Press    =      -288.5241 
Volume   =    309950.7067 
---------------- Step      550 ----- CPU =      2.8940 (sec) ----------------
TotEng   =    -24823.2847 KinEng   =     21697.3264 Temp     =       302.5606 
PotEng   =    -46520.6111 E_bond   =      2539.8437 E_angle  =     10943.9027 
E_dihed  =      5224.0526 E_impro  =       236.0281 E_vdwl   =     -2151.0459 
E_coul   =    252949.6313 E_long   =   -316263.0236 Press    =       134.2182 
Volume   =    309831.0617 
---------------- Step      600 ----- CPU =      3.1544 (sec) ----------------
TotEng   =    -24756.7170 KinEng   =     21716.1263 Temp     =       302.8228 
PotEng   =    -46472.8433 E_bond   =      2563.1790 E_angle  =     11097.9254 
E_dihed  =      5274.6991 E_impro  =       233.5776 E_vdwl   =     -2296.4485 
E_coul   =    252946.6358 E_long   =   -316292.4117 Press    =      -328.5779 
Volume   =    309764.8193 
Loop time of 3.15446 on 24 procs for 600 steps with 32000 atoms

Performance: 32.868 ns/day, 0.730 hours/ns, 190.207 timesteps/s
96.3% CPU use with 24 MPI tasks x 1 OpenMP threads

MPI task timing breakdown:
Section |  min time  |  avg time  |  max time  |%varavg| %total
---------------------------------------------------------------
Pair    | 0.30269    | 0.33779    | 0.37505    |   4.1 | 10.71
Bond    | 0.15518    | 0.3287     | 0.54523    |  24.2 | 10.42
Kspace  | 0.95648    | 1.2015     | 1.384      |  13.1 | 38.09
Neigh   | 0.03556    | 0.036331   | 0.037131   |   0.2 |  1.15
Comm    | 0.20119    | 0.26207    | 0.30106    |   7.6 |  8.31
Output  | 0.00092705 | 0.00095046 | 0.001223   |   0.0 |  0.03
Modify  | 0.80741    | 0.8609     | 1.0257     |   5.5 | 27.29
Other   |            | 0.1263     |            |       |  4.00

Nlocal:        1333.33 ave        1383 max        1279 min
Histogram: 2 4 0 3 2 2 4 1 3 3
Nghost:        9810.25 ave        9992 max        9640 min
Histogram: 2 1 3 5 5 0 1 2 2 3
Neighs:              0 ave           0 max           0 min
Histogram: 24 0 0 0 0 0 0 0 0 0

Total # of neighbors = 0
Ave neighs/atom = 0
Ave special neighs/atom = 7.431875
Neighbor list builds = 65
Dangerous builds = 0


---------------------------------------------------------------------
      Device Time Info (average): 
---------------------------------------------------------------------
Data Transfer:   0.0187 s.
Neighbor copy:   0.0319 s.
Neighbor build:  0.1179 s.
Force calc:      0.3343 s.
Device Overhead: 0.2192 s.
Average split:   1.0000.
Lanes / atom:    8.
Vector width:    32.
Max Mem / Proc:  6.97 MB.
CPU Neighbor:    0.0304 s.
CPU Cast/Pack:   0.0488 s.
CPU Driver_Time: 0.0172 s.
CPU Idle_Time:   0.0030 s.
---------------------------------------------------------------------



---------------------------------------------------------------------
    Device Time Info (average) for kspace: 
---------------------------------------------------------------------
Data Out:        0.0143 s.
Data In:         0.0876 s.
Kernel (map):    0.1972 s.
Kernel (rho):    0.0417 s.
Force interp:    0.1105 s.
Total rho:       0.2532 s.
Total interp:    0.1981 s.
Force copy:      0.0130 s.
Total:           0.4643 s.
CPU Poisson:     0.9672 s.
CPU Data Cast:   0.0029 s.
CPU Idle Time:   0.1852 s.
Max Mem / Proc:  1.58 MB.
---------------------------------------------------------------------

Total wall time: 0:00:33
Intel(R) VTune(TM) Profiler 2022.2.0 collection completed successfully. Use the "aps --report /home/ubuntu/lammps/bench/aps_result_20220531" command to generate textual and HTML reports for the profiling session.
