LAMMPS (7 Jan 2022)
  using 1 OpenMP thread(s) per MPI task
New timer settings: style=full  mode=nosync  timeout=off
Reading data file ...
  orthogonal box = (-27.5 -38.5 -36.3646) to (27.5 38.5 36.3615)
  2 by 4 by 2 MPI processor grid
  reading atoms ...
  32000 atoms
  reading velocities ...
  32000 velocities
  scanning bonds ...
  4 = max bonds/atom
  scanning angles ...
  8 = max angles/atom
  scanning dihedrals ...
  18 = max dihedrals/atom
  scanning impropers ...
  2 = max impropers/atom
  reading bonds ...
  27723 bonds
  reading angles ...
  40467 angles
  reading dihedrals ...
  56829 dihedrals
  reading impropers ...
  1034 impropers
Finding 1-2 1-3 1-4 neighbors ...
  special bond factors lj:    0        0        0       
  special bond factors coul:  0        0        0       
     4 = max # of 1-2 neighbors
    12 = max # of 1-3 neighbors
    24 = max # of 1-4 neighbors
    26 = max # of special neighbors
  special bonds CPU = 0.007 seconds
  read_data CPU = 0.324 seconds
Replicating atoms ...
  orthogonal box = (-27.5 -38.5 -36.3646) to (82.5 115.5 109.0876)
  2 by 4 by 2 MPI processor grid
  256000 atoms
  221784 bonds
  323736 angles
  454632 dihedrals
  8272 impropers
Finding 1-2 1-3 1-4 neighbors ...
  special bond factors lj:    0        0        0       
  special bond factors coul:  0        0        0       
     4 = max # of 1-2 neighbors
    12 = max # of 1-3 neighbors
    24 = max # of 1-4 neighbors
    26 = max # of special neighbors
  special bonds CPU = 0.027 seconds
  replicate CPU = 0.068 seconds
Finding SHAKE clusters ...
   12936 = # of size 2 clusters
   29064 = # of size 3 clusters
    5976 = # of size 4 clusters
   33864 = # of frozen angles
  find clusters CPU = 0.012 seconds

CITE-CITE-CITE-CITE-CITE-CITE-CITE-CITE-CITE-CITE-CITE-CITE-CITE

Your simulation uses code contributions which should be cited:
- GPU package (short-range, long-range and three-body potentials):
The log file lists these citations in BibTeX format.

CITE-CITE-CITE-CITE-CITE-CITE-CITE-CITE-CITE-CITE-CITE-CITE-CITE

PPPM initialization ...
  using 12-bit tables for long-range coulomb (../kspace.cpp:340)
  G vector (1/distance) = 0.24587501
  grid = 48 64 60
  stencil order = 5
  estimated absolute RMS force accuracy = 0.041154918
  estimated relative force accuracy = 0.00012393681
  using single precision MKL FFT
  3d grid and FFT values/proc = 21315 12288

--------------------------------------------------------------------------
- Using acceleration for pppm:
-  with 16 proc(s) per device.
-  Horizontal vector operations: ENABLED
-  Shared memory system: No
--------------------------------------------------------------------------
Device 0: Tesla V100-SXM2-16GB, 80 CUs, 11/16 GB, 1.5 GHZ (Mixed Precision)
--------------------------------------------------------------------------

Initializing Device and compiling on process 0...Done.
Initializing Device 0 on core 0...Done.
Initializing Device 0 on core 1...Done.
Initializing Device 0 on core 2...Done.
Initializing Device 0 on core 3...Done.
Initializing Device 0 on core 4...Done.
Initializing Device 0 on core 5...Done.
Initializing Device 0 on core 6...Done.
Initializing Device 0 on core 7...Done.
Initializing Device 0 on core 8...Done.
Initializing Device 0 on core 9...Done.
Initializing Device 0 on core 10...Done.
Initializing Device 0 on core 11...Done.
Initializing Device 0 on core 12...Done.
Initializing Device 0 on core 13...Done.
Initializing Device 0 on core 14...Done.
Initializing Device 0 on core 15...Done.


--------------------------------------------------------------------------
- Using acceleration for lj/charmm/coul/long:
-  with 16 proc(s) per device.
-  Horizontal vector operations: ENABLED
-  Shared memory system: No
--------------------------------------------------------------------------
Device 0: Tesla V100-SXM2-16GB, 80 CUs, 11/16 GB, 1.5 GHZ (Mixed Precision)
--------------------------------------------------------------------------

Initializing Device and compiling on process 0...Done.
Initializing Device 0 on core 0...Done.
Initializing Device 0 on core 1...Done.
Initializing Device 0 on core 2...Done.
Initializing Device 0 on core 3...Done.
Initializing Device 0 on core 4...Done.
Initializing Device 0 on core 5...Done.
Initializing Device 0 on core 6...Done.
Initializing Device 0 on core 7...Done.
Initializing Device 0 on core 8...Done.
Initializing Device 0 on core 9...Done.
Initializing Device 0 on core 10...Done.
Initializing Device 0 on core 11...Done.
Initializing Device 0 on core 12...Done.
Initializing Device 0 on core 13...Done.
Initializing Device 0 on core 14...Done.
Initializing Device 0 on core 15...Done.

  generated 2278 of 2278 mixed pair_coeff terms from arithmetic mixing rule
Setting up Verlet run ...
  Unit style    : real
  Current step  : 0
  Time step     : 2
Per MPI rank memory allocation (min/avg/max) = 73.7 | 73.75 | 73.78 Mbytes
---------------- Step        0 ----- CPU =      0.0000 (sec) ----------------
TotEng   =   -202846.6817 KinEng   =    171558.6503 Temp     =       299.0288 
PotEng   =   -374405.3320 E_bond   =     20303.9521 E_angle  =     87370.9937 
E_dihed  =     41694.2920 E_impro  =      1708.0927 E_vdwl   =    -18462.9051 
E_coul   =   1630560.2223 E_long   =  -2137579.9797 Press    =      -148.7798 
Volume   =   2463960.2680 
---------------- Step       50 ----- CPU =      1.2148 (sec) ----------------
TotEng   =   -202633.3992 KinEng   =    172010.7449 Temp     =       299.8168 
PotEng   =   -374644.1441 E_bond   =     19774.3526 E_angle  =     86693.5110 
E_dihed  =     41917.8105 E_impro  =      1817.0672 E_vdwl   =    -15943.3791 
E_coul   =   1628731.1967 E_long   =  -2137634.7030 Press    =       238.5783 
Volume   =   2464254.6361 
---------------- Step      100 ----- CPU =      2.4437 (sec) ----------------
TotEng   =   -202315.0188 KinEng   =    172724.3665 Temp     =       301.0607 
PotEng   =   -375039.3852 E_bond   =     20545.2196 E_angle  =     86257.3376 
E_dihed  =     41587.6743 E_impro  =      1733.5574 E_vdwl   =    -15187.8634 
E_coul   =   1627614.4528 E_long   =  -2137589.7635 Press    =        10.9188 
Volume   =   2465078.7649 
Loop time of 2.44382 on 16 procs for 100 steps with 256000 atoms

Performance: 7.071 ns/day, 3.394 hours/ns, 40.920 timesteps/s
97.2% CPU use with 16 MPI tasks x 1 OpenMP threads

MPI task timing breakdown:
Section |  min time  |  avg time  |  max time  |%varavg|  %CPU | %total
-----------------------------------------------------------------------
Pair    | 0.43308    | 0.47782    | 0.50895    |   2.9 |  98.7 | 19.55
Bond    | 0.50669    | 0.53129    | 0.56136    |   2.6 |  99.3 | 21.74
Kspace  | 0.46455    | 0.49437    | 0.51725    |   2.7 |  96.5 | 20.23
Neigh   | 0.080506   | 0.082241   | 0.083049   |   0.3 |  95.9 |  3.37
Comm    | 0.1496     | 0.15624    | 0.17201    |   2.0 |  92.8 |  6.39
Output  | 0.00025251 | 0.00026167 | 0.00031357 |   0.0 | 100.0 |  0.01
Modify  | 0.62403    | 0.66328    | 0.7044     |   2.6 |  95.9 | 27.14
Other   |            | 0.03832    |            |       |       |  1.57

Nlocal:          16000 ave       16102 max       15898 min
Histogram: 8 0 0 0 0 0 0 0 0 8
Nghost:          33482 ave       33491 max       33473 min
Histogram: 8 0 0 0 0 0 0 0 0 8
Neighs:              0 ave           0 max           0 min
Histogram: 16 0 0 0 0 0 0 0 0 0

Total # of neighbors = 0
Ave neighs/atom = 0
Ave special neighs/atom = 7.431875
Neighbor list builds = 11
Dangerous builds = 0


---------------------------------------------------------------------
      Device Time Info (average): 
---------------------------------------------------------------------
Data Transfer:   0.0081 s.
Neighbor copy:   0.0413 s.
Neighbor build:  0.1481 s.
Force calc:      0.5056 s.
Device Overhead: 0.1701 s.
Average split:   1.0000.
Lanes / atom:    8.
Vector width:    32.
Max Mem / Proc:  76.34 MB.
CPU Neighbor:    0.0180 s.
CPU Cast/Pack:   0.0437 s.
CPU Driver_Time: 0.0018 s.
CPU Idle_Time:   0.0712 s.
---------------------------------------------------------------------



---------------------------------------------------------------------
    Device Time Info (average) for kspace: 
---------------------------------------------------------------------
Data Out:        0.0040 s.
Data In:         0.0132 s.
Kernel (map):    0.2900 s.
Kernel (rho):    0.0144 s.
Force interp:    0.2958 s.
Total rho:       0.3083 s.
Total interp:    0.3090 s.
Force copy:      0.0060 s.
Total:           0.6233 s.
CPU Poisson:     0.2677 s.
CPU Data Cast:   0.0072 s.
CPU Idle Time:   0.2391 s.
Max Mem / Proc:  4.09 MB.
---------------------------------------------------------------------

Total wall time: 0:00:12
Intel(R) VTune(TM) Profiler 2022.2.0 collection completed successfully. Use the "aps --report /home/ubuntu/lammps/bench/aps_result_20220420" command to generate textual and HTML reports for the profiling session.
