LAMMPS (7 Jan 2022)
  using 1 OpenMP thread(s) per MPI task
New timer settings: style=full  mode=nosync  timeout=off
Reading data file ...
  orthogonal box = (-27.5 -38.5 -36.3646) to (27.5 38.5 36.3615)
  2 by 3 by 2 MPI processor grid
  reading atoms ...
  32000 atoms
  reading velocities ...
  32000 velocities
  scanning bonds ...
  4 = max bonds/atom
  scanning angles ...
  8 = max angles/atom
  scanning dihedrals ...
  18 = max dihedrals/atom
  scanning impropers ...
  2 = max impropers/atom
  reading bonds ...
  27723 bonds
  reading angles ...
  40467 angles
  reading dihedrals ...
  56829 dihedrals
  reading impropers ...
  1034 impropers
Finding 1-2 1-3 1-4 neighbors ...
  special bond factors lj:    0        0        0       
  special bond factors coul:  0        0        0       
     4 = max # of 1-2 neighbors
    12 = max # of 1-3 neighbors
    24 = max # of 1-4 neighbors
    26 = max # of special neighbors
  special bonds CPU = 0.005 seconds
  read_data CPU = 0.334 seconds
Finding SHAKE clusters ...
    1617 = # of size 2 clusters
    3633 = # of size 3 clusters
     747 = # of size 4 clusters
    4233 = # of frozen angles
  find clusters CPU = 0.003 seconds

CITE-CITE-CITE-CITE-CITE-CITE-CITE-CITE-CITE-CITE-CITE-CITE-CITE

Your simulation uses code contributions which should be cited:
- GPU package (short-range, long-range and three-body potentials):
The log file lists these citations in BibTeX format.

CITE-CITE-CITE-CITE-CITE-CITE-CITE-CITE-CITE-CITE-CITE-CITE-CITE

PPPM initialization ...
  using 12-bit tables for long-range coulomb (../kspace.cpp:340)
  G vector (1/distance) = 0.24883488
  grid = 25 32 32
  stencil order = 5
  estimated absolute RMS force accuracy = 0.035547797
  estimated relative force accuracy = 0.00010705113
  using single precision MKL FFT
  3d grid and FFT values/proc = 6426 2400

--------------------------------------------------------------------------
- Using acceleration for pppm:
-  with 6 proc(s) per device.
-  Horizontal vector operations: ENABLED
-  Shared memory system: No
--------------------------------------------------------------------------
Device 0: Tesla V100-SXM2-16GB, 80 CUs, 14/16 GB, 1.5 GHZ (Mixed Precision)
Device 1: Tesla V100-SXM2-16GB, 80 CUs, 1.5 GHZ (Mixed Precision)
--------------------------------------------------------------------------

Initializing Device and compiling on process 0...Done.
Initializing Devices 0-1 on core 0...Done.
Initializing Devices 0-1 on core 1...Done.
Initializing Devices 0-1 on core 2...Done.
Initializing Devices 0-1 on core 3...Done.
Initializing Devices 0-1 on core 4...Done.
Initializing Devices 0-1 on core 5...Done.


--------------------------------------------------------------------------
- Using acceleration for lj/charmm/coul/long:
-  with 6 proc(s) per device.
-  Horizontal vector operations: ENABLED
-  Shared memory system: No
--------------------------------------------------------------------------
Device 0: Tesla V100-SXM2-16GB, 80 CUs, 14/16 GB, 1.5 GHZ (Mixed Precision)
Device 1: Tesla V100-SXM2-16GB, 80 CUs, 1.5 GHZ (Mixed Precision)
--------------------------------------------------------------------------

Initializing Device and compiling on process 0...Done.
Initializing Devices 0-1 on core 0...Done.
Initializing Devices 0-1 on core 1...Done.
Initializing Devices 0-1 on core 2...Done.
Initializing Devices 0-1 on core 3...Done.
Initializing Devices 0-1 on core 4...Done.
Initializing Devices 0-1 on core 5...Done.

  generated 2278 of 2278 mixed pair_coeff terms from arithmetic mixing rule
Setting up Verlet run ...
  Unit style    : real
  Current step  : 0
  Time step     : 2
Per MPI rank memory allocation (min/avg/max) = 18.46 | 18.55 | 18.69 Mbytes
---------------- Step        0 ----- CPU =      0.0000 (sec) ----------------
TotEng   =    -25356.2687 KinEng   =     21444.8313 Temp     =       299.0397 
PotEng   =    -46801.1000 E_bond   =      2537.9940 E_angle  =     10921.3742 
E_dihed  =      5211.7865 E_impro  =       213.5116 E_vdwl   =     -2307.8635 
E_coul   =    207025.8394 E_long   =   -270403.7421 Press    =      -149.3321 
Volume   =    307995.0335 
---------------- Step       50 ----- CPU =      0.3097 (sec) ----------------
TotEng   =    -25330.0817 KinEng   =     21500.9994 Temp     =       299.8229 
PotEng   =    -46831.0811 E_bond   =      2471.7037 E_angle  =     10836.5109 
E_dihed  =      5239.6320 E_impro  =       227.1218 E_vdwl   =     -1993.2895 
E_coul   =    206797.6414 E_long   =   -270410.4013 Press    =       237.6563 
Volume   =    308031.6776 
---------------- Step      100 ----- CPU =      0.6093 (sec) ----------------
TotEng   =    -25290.7937 KinEng   =     21591.9066 Temp     =       301.0906 
PotEng   =    -46882.7003 E_bond   =      2567.9807 E_angle  =     10781.9578 
E_dihed  =      5198.7495 E_impro  =       216.7864 E_vdwl   =     -1902.6694 
E_coul   =    206659.4765 E_long   =   -270404.9818 Press    =         6.7231 
Volume   =    308134.2325 
---------------- Step      150 ----- CPU =      0.9085 (sec) ----------------
TotEng   =    -25258.1029 KinEng   =     21529.6604 Temp     =       300.2226 
PotEng   =    -46787.7633 E_bond   =      2556.3452 E_angle  =     10852.7815 
E_dihed  =      5265.2327 E_impro  =       203.0688 E_vdwl   =     -2066.1543 
E_coul   =    206797.4482 E_long   =   -270396.4855 Press    =       251.4835 
Volume   =    308515.2411 
---------------- Step      200 ----- CPU =      1.2057 (sec) ----------------
TotEng   =    -25078.9286 KinEng   =     21571.2011 Temp     =       300.8019 
PotEng   =    -46650.1297 E_bond   =      2488.6941 E_angle  =     11073.4416 
E_dihed  =      5221.7520 E_impro  =       232.8564 E_vdwl   =     -2167.6535 
E_coul   =    206902.9003 E_long   =   -270402.1206 Press    =        20.7293 
Volume   =    308997.5509 
---------------- Step      250 ----- CPU =      1.5056 (sec) ----------------
TotEng   =    -24944.3727 KinEng   =     21547.5278 Temp     =       300.4717 
PotEng   =    -46491.9005 E_bond   =      2542.5552 E_angle  =     11105.4391 
E_dihed  =      5239.6544 E_impro  =       212.3519 E_vdwl   =     -2168.7696 
E_coul   =    206989.0254 E_long   =   -270412.1570 Press    =      -169.9426 
Volume   =    309388.1403 
---------------- Step      300 ----- CPU =      1.7955 (sec) ----------------
TotEng   =    -25000.7731 KinEng   =     21496.3802 Temp     =       299.7585 
PotEng   =    -46497.1533 E_bond   =      2558.1039 E_angle  =     10923.1271 
E_dihed  =      5211.1823 E_impro  =       222.2934 E_vdwl   =     -2221.1329 
E_coul   =    207195.9258 E_long   =   -270386.6529 Press    =      -373.3603 
Volume   =    309663.2624 
---------------- Step      350 ----- CPU =      2.0949 (sec) ----------------
TotEng   =    -25131.8002 KinEng   =     21467.7199 Temp     =       299.3588 
PotEng   =    -46599.5200 E_bond   =      2580.1836 E_angle  =     10951.8831 
E_dihed  =      5250.5232 E_impro  =       212.6590 E_vdwl   =     -2164.0768 
E_coul   =    206970.3930 E_long   =   -270401.0850 Press    =      -331.8238 
Volume   =    309799.2235 
---------------- Step      400 ----- CPU =      2.3905 (sec) ----------------
TotEng   =    -25214.9524 KinEng   =     21449.3182 Temp     =       299.1022 
PotEng   =    -46664.2705 E_bond   =      2525.3099 E_angle  =     10965.8100 
E_dihed  =      5206.2950 E_impro  =       213.1959 E_vdwl   =     -2197.2023 
E_coul   =    207036.2305 E_long   =   -270413.9095 Press    =       172.9684 
Volume   =    309815.1731 
---------------- Step      450 ----- CPU =      2.6904 (sec) ----------------
TotEng   =    -25178.3099 KinEng   =     21428.9087 Temp     =       298.8176 
PotEng   =    -46607.2186 E_bond   =      2502.4388 E_angle  =     10958.1878 
E_dihed  =      5239.7807 E_impro  =       225.0901 E_vdwl   =     -2253.4998 
E_coul   =    207109.3516 E_long   =   -270388.5678 Press    =       170.0186 
Volume   =    309772.8091 
---------------- Step      500 ----- CPU =      2.9878 (sec) ----------------
TotEng   =    -25006.2941 KinEng   =     21587.2041 Temp     =       301.0250 
PotEng   =    -46593.4982 E_bond   =      2559.9036 E_angle  =     10945.8315 
E_dihed  =      5262.4454 E_impro  =       218.3880 E_vdwl   =     -2074.2223 
E_coul   =    206891.3613 E_long   =   -270397.2057 Press    =      -156.9909 
Volume   =    309747.0395 
---------------- Step      550 ----- CPU =      3.2782 (sec) ----------------
TotEng   =    -24958.4016 KinEng   =     21551.3859 Temp     =       300.5255 
PotEng   =    -46509.7875 E_bond   =      2510.1525 E_angle  =     10921.7041 
E_dihed  =      5197.1179 E_impro  =       226.8006 E_vdwl   =     -2098.9394 
E_coul   =    207125.4266 E_long   =   -270392.0499 Press    =       429.6698 
Volume   =    309686.9448 
---------------- Step      600 ----- CPU =      3.5771 (sec) ----------------
TotEng   =    -24938.3747 KinEng   =     21744.4098 Temp     =       303.2172 
PotEng   =    -46682.7845 E_bond   =      2563.6596 E_angle  =     10894.7633 
E_dihed  =      5261.3373 E_impro  =       211.4139 E_vdwl   =     -2175.2345 
E_coul   =    206955.9620 E_long   =   -270394.6861 Press    =       151.9629 
Volume   =    309825.0089 
Loop time of 3.57717 on 12 procs for 600 steps with 32000 atoms

Performance: 28.984 ns/day, 0.828 hours/ns, 167.730 timesteps/s
95.0% CPU use with 12 MPI tasks x 1 OpenMP threads

MPI task timing breakdown:
Section |  min time  |  avg time  |  max time  |%varavg|  %CPU | %total
-----------------------------------------------------------------------
Pair    | 0.77374    | 0.81654    | 0.85292    |   2.4 |  95.9 | 22.83
Bond    | 0.46982    | 0.5389     | 0.65112    |   6.6 |  96.8 | 15.07
Kspace  | 1.008      | 1.1184     | 1.1859     |   4.3 |  94.9 | 31.27
Neigh   | 0.049424   | 0.050357   | 0.050935   |   0.2 |  93.3 |  1.41
Comm    | 0.22566    | 0.24081    | 0.26798    |   3.6 |  93.7 |  6.73
Output  | 0.00095409 | 0.00099025 | 0.0012518  |   0.0 | 100.0 |  0.03
Modify  | 0.68394    | 0.76681    | 0.81279    |   4.8 |  93.4 | 21.44
Other   |            | 0.04431    |            |       |       |  1.24

Nlocal:        2666.67 ave        2735 max        2620 min
Histogram: 2 1 3 1 1 0 1 1 1 1
Nghost:        13230.4 ave       13323 max       13129 min
Histogram: 1 3 0 0 1 1 2 2 1 1
Neighs:              0 ave           0 max           0 min
Histogram: 12 0 0 0 0 0 0 0 0 0

Total # of neighbors = 0
Ave neighs/atom = 0
Ave special neighs/atom = 7.431875
Neighbor list builds = 67
Dangerous builds = 0


---------------------------------------------------------------------
      Device Time Info (average): 
---------------------------------------------------------------------
Data Transfer:   0.0182 s.
Neighbor copy:   0.0609 s.
Neighbor build:  0.2162 s.
Force calc:      0.7712 s.
Device Overhead: 0.4014 s.
Average split:   1.0000.
Lanes / atom:    8.
Vector width:    32.
Max Mem / Proc:  13.19 MB.
CPU Neighbor:    0.0229 s.
CPU Cast/Pack:   0.0703 s.
CPU Driver_Time: 0.0114 s.
CPU Idle_Time:   0.0852 s.
---------------------------------------------------------------------



---------------------------------------------------------------------
    Device Time Info (average) for kspace: 
---------------------------------------------------------------------
Data Out:        0.0097 s.
Data In:         0.0213 s.
Kernel (map):    0.4924 s.
Kernel (rho):    0.0686 s.
Force interp:    0.4588 s.
Total rho:       0.5708 s.
Total interp:    0.4802 s.
Force copy:      0.0108 s.
Total:           1.0617 s.
CPU Poisson:     0.6330 s.
CPU Data Cast:   0.0067 s.
CPU Idle Time:   0.4631 s.
Max Mem / Proc:  0.88 MB.
---------------------------------------------------------------------

Total wall time: 0:00:10
Intel(R) VTune(TM) Profiler 2022.2.0 collection completed successfully. Use the "aps --report /home/ubuntu/lammps/bench/aps_result_20220420" command to generate textual and HTML reports for the profiling session.
