LAMMPS (7 Jan 2022)
  using 1 OpenMP thread(s) per MPI task
Reading data file ...
  orthogonal box = (-27.5 -38.5 -36.3646) to (27.5 38.5 36.3615)
  2 by 3 by 2 MPI processor grid
  reading atoms ...
  32000 atoms
  reading velocities ...
  32000 velocities
  scanning bonds ...
  4 = max bonds/atom
  scanning angles ...
  8 = max angles/atom
  scanning dihedrals ...
  18 = max dihedrals/atom
  scanning impropers ...
  2 = max impropers/atom
  reading bonds ...
  27723 bonds
  reading angles ...
  40467 angles
  reading dihedrals ...
  56829 dihedrals
  reading impropers ...
  1034 impropers
Finding 1-2 1-3 1-4 neighbors ...
  special bond factors lj:    0        0        0       
  special bond factors coul:  0        0        0       
     4 = max # of 1-2 neighbors
    12 = max # of 1-3 neighbors
    24 = max # of 1-4 neighbors
    26 = max # of special neighbors
  special bonds CPU = 0.005 seconds
  read_data CPU = 0.316 seconds
Finding SHAKE clusters ...
    1617 = # of size 2 clusters
    3633 = # of size 3 clusters
     747 = # of size 4 clusters
    4233 = # of frozen angles
  find clusters CPU = 0.003 seconds

CITE-CITE-CITE-CITE-CITE-CITE-CITE-CITE-CITE-CITE-CITE-CITE-CITE

Your simulation uses code contributions which should be cited:
- GPU package (short-range, long-range and three-body potentials):
The log file lists these citations in BibTeX format.

CITE-CITE-CITE-CITE-CITE-CITE-CITE-CITE-CITE-CITE-CITE-CITE-CITE

PPPM initialization ...
  using 12-bit tables for long-range coulomb (../kspace.cpp:340)
  G vector (1/distance) = 0.24883488
  grid = 25 32 32
  stencil order = 5
  estimated absolute RMS force accuracy = 0.035547797
  estimated relative force accuracy = 0.00010705113
  using single precision MKL FFT
  3d grid and FFT values/proc = 6426 2400

--------------------------------------------------------------------------
- Using acceleration for pppm:
-  with 6 proc(s) per device.
-  Horizontal vector operations: ENABLED
-  Shared memory system: No
--------------------------------------------------------------------------
Device 0: Tesla V100-SXM2-16GB, 80 CUs, 14/16 GB, 1.5 GHZ (Mixed Precision)
Device 1: Tesla V100-SXM2-16GB, 80 CUs, 1.5 GHZ (Mixed Precision)
--------------------------------------------------------------------------

Initializing Device and compiling on process 0...Done.
Initializing Devices 0-1 on core 0...Done.
Initializing Devices 0-1 on core 1...Done.
Initializing Devices 0-1 on core 2...Done.
Initializing Devices 0-1 on core 3...Done.
Initializing Devices 0-1 on core 4...Done.
Initializing Devices 0-1 on core 5...Done.


--------------------------------------------------------------------------
- Using acceleration for lj/charmm/coul/long:
-  with 6 proc(s) per device.
-  Horizontal vector operations: ENABLED
-  Shared memory system: No
--------------------------------------------------------------------------
Device 0: Tesla V100-SXM2-16GB, 80 CUs, 14/16 GB, 1.5 GHZ (Mixed Precision)
Device 1: Tesla V100-SXM2-16GB, 80 CUs, 1.5 GHZ (Mixed Precision)
--------------------------------------------------------------------------

Initializing Device and compiling on process 0...Done.
Initializing Devices 0-1 on core 0...Done.
Initializing Devices 0-1 on core 1...Done.
Initializing Devices 0-1 on core 2...Done.
Initializing Devices 0-1 on core 3...Done.
Initializing Devices 0-1 on core 4...Done.
Initializing Devices 0-1 on core 5...Done.

  generated 2278 of 2278 mixed pair_coeff terms from arithmetic mixing rule
Setting up Verlet run ...
  Unit style    : real
  Current step  : 0
  Time step     : 2
Per MPI rank memory allocation (min/avg/max) = 18.46 | 18.55 | 18.69 Mbytes
---------------- Step        0 ----- CPU =      0.0000 (sec) ----------------
TotEng   =    -25356.2687 KinEng   =     21444.8313 Temp     =       299.0397 
PotEng   =    -46801.1000 E_bond   =      2537.9940 E_angle  =     10921.3742 
E_dihed  =      5211.7865 E_impro  =       213.5116 E_vdwl   =     -2307.8635 
E_coul   =    207025.8394 E_long   =   -270403.7421 Press    =      -149.3321 
Volume   =    307995.0335 
---------------- Step       50 ----- CPU =      0.3098 (sec) ----------------
TotEng   =    -25330.0794 KinEng   =     21500.9990 Temp     =       299.8229 
PotEng   =    -46831.0784 E_bond   =      2471.7037 E_angle  =     10836.5108 
E_dihed  =      5239.6320 E_impro  =       227.1218 E_vdwl   =     -1993.2895 
E_coul   =    206797.6441 E_long   =   -270410.4013 Press    =       237.6575 
Volume   =    308031.6776 
---------------- Step      100 ----- CPU =      0.6117 (sec) ----------------
TotEng   =    -25290.7882 KinEng   =     21591.9039 Temp     =       301.0905 
PotEng   =    -46882.6920 E_bond   =      2567.9808 E_angle  =     10781.9580 
E_dihed  =      5198.7495 E_impro  =       216.7864 E_vdwl   =     -1902.6674 
E_coul   =    206659.4826 E_long   =   -270404.9820 Press    =         6.7301 
Volume   =    308134.2327 
---------------- Step      150 ----- CPU =      0.9030 (sec) ----------------
TotEng   =    -25258.0999 KinEng   =     21529.6678 Temp     =       300.2227 
PotEng   =    -46787.7677 E_bond   =      2556.3451 E_angle  =     10852.7820 
E_dihed  =      5265.2329 E_impro  =       203.0688 E_vdwl   =     -2066.1509 
E_coul   =    206797.4388 E_long   =   -270396.4846 Press    =       251.4794 
Volume   =    308515.2428 
---------------- Step      200 ----- CPU =      1.2027 (sec) ----------------
TotEng   =    -25078.9342 KinEng   =     21571.2353 Temp     =       300.8023 
PotEng   =    -46650.1695 E_bond   =      2488.6952 E_angle  =     11073.4422 
E_dihed  =      5221.7522 E_impro  =       232.8568 E_vdwl   =     -2167.6538 
E_coul   =    206902.8578 E_long   =   -270402.1200 Press    =        20.7166 
Volume   =    308997.5540 
---------------- Step      250 ----- CPU =      1.5090 (sec) ----------------
TotEng   =    -24944.3580 KinEng   =     21547.6424 Temp     =       300.4733 
PotEng   =    -46492.0004 E_bond   =      2542.5544 E_angle  =     11105.4549 
E_dihed  =      5239.6457 E_impro  =       212.3485 E_vdwl   =     -2168.7953 
E_coul   =    206988.9314 E_long   =   -270412.1400 Press    =      -169.8653 
Volume   =    309388.1376 
---------------- Step      300 ----- CPU =      1.7994 (sec) ----------------
TotEng   =    -25000.9897 KinEng   =     21496.9285 Temp     =       299.7661 
PotEng   =    -46497.9182 E_bond   =      2558.0432 E_angle  =     10922.8268 
E_dihed  =      5211.1746 E_impro  =       222.2772 E_vdwl   =     -2221.4814 
E_coul   =    207196.0063 E_long   =   -270386.7649 Press    =      -373.3800 
Volume   =    309663.3299 
---------------- Step      350 ----- CPU =      2.1010 (sec) ----------------
TotEng   =    -25130.2893 KinEng   =     21465.6674 Temp     =       299.3302 
PotEng   =    -46595.9567 E_bond   =      2580.2570 E_angle  =     10951.8764 
E_dihed  =      5250.4875 E_impro  =       212.6608 E_vdwl   =     -2163.0072 
E_coul   =    206972.9202 E_long   =   -270401.1513 Press    =      -329.7175 
Volume   =    309799.0178 
---------------- Step      400 ----- CPU =      2.3912 (sec) ----------------
TotEng   =    -25209.4130 KinEng   =     21431.1212 Temp     =       298.8485 
PotEng   =    -46640.5342 E_bond   =      2526.0510 E_angle  =     10966.2465 
E_dihed  =      5206.4134 E_impro  =       213.0805 E_vdwl   =     -2191.0118 
E_coul   =    207055.2467 E_long   =   -270416.5605 Press    =       185.4716 
Volume   =    309813.1632 
---------------- Step      450 ----- CPU =      2.6918 (sec) ----------------
TotEng   =    -25174.0797 KinEng   =     21487.2498 Temp     =       299.6312 
PotEng   =    -46661.3295 E_bond   =      2500.3739 E_angle  =     10956.7810 
E_dihed  =      5243.4328 E_impro  =       224.8639 E_vdwl   =     -2285.4486 
E_coul   =    207085.3160 E_long   =   -270386.6485 Press    =       142.3412 
Volume   =    309775.0465 
---------------- Step      500 ----- CPU =      2.9847 (sec) ----------------
TotEng   =    -25006.4388 KinEng   =     21579.4180 Temp     =       300.9164 
PotEng   =    -46585.8568 E_bond   =      2565.5199 E_angle  =     10940.8844 
E_dihed  =      5261.2534 E_impro  =       217.0550 E_vdwl   =     -2180.2750 
E_coul   =    207000.2528 E_long   =   -270390.5472 Press    =      -279.0638 
Volume   =    309765.8513 
---------------- Step      550 ----- CPU =      3.2876 (sec) ----------------
TotEng   =    -24930.8119 KinEng   =     21601.4094 Temp     =       301.2231 
PotEng   =    -46532.2213 E_bond   =      2510.6525 E_angle  =     10905.0798 
E_dihed  =      5217.2567 E_impro  =       223.7286 E_vdwl   =     -2019.4816 
E_coul   =    207037.3795 E_long   =   -270406.8370 Press    =       473.1211 
Volume   =    309720.3653 
---------------- Step      600 ----- CPU =      3.5811 (sec) ----------------
TotEng   =    -24954.1613 KinEng   =     21615.1295 Temp     =       301.4144 
PotEng   =    -46569.2907 E_bond   =      2555.6477 E_angle  =     10905.6104 
E_dihed  =      5240.2178 E_impro  =       217.3058 E_vdwl   =     -2190.3052 
E_coul   =    207101.2182 E_long   =   -270398.9854 Press    =       133.3241 
Volume   =    309866.1225 
Loop time of 3.58119 on 12 procs for 600 steps with 32000 atoms

Performance: 28.951 ns/day, 0.829 hours/ns, 167.542 timesteps/s
95.3% CPU use with 12 MPI tasks x 1 OpenMP threads

MPI task timing breakdown:
Section |  min time  |  avg time  |  max time  |%varavg| %total
---------------------------------------------------------------
Pair    | 0.79435    | 0.82271    | 0.85118    |   2.0 | 22.97
Bond    | 0.46667    | 0.53596    | 0.62745    |   6.7 | 14.97
Kspace  | 1.0338     | 1.1248     | 1.1964     |   4.6 | 31.41
Neigh   | 0.05136    | 0.051654   | 0.051953   |   0.1 |  1.44
Comm    | 0.22645    | 0.24106    | 0.26822    |   3.6 |  6.73
Output  | 0.00094084 | 0.0009733  | 0.0012475  |   0.0 |  0.03
Modify  | 0.68562    | 0.76505    | 0.81376    |   5.2 | 21.36
Other   |            | 0.03896    |            |       |  1.09

Nlocal:        2666.67 ave        2736 max        2621 min
Histogram: 3 2 1 1 1 1 0 1 0 2
Nghost:        13236.3 ave       13340 max       13130 min
Histogram: 1 0 2 2 1 0 3 1 1 1
Neighs:              0 ave           0 max           0 min
Histogram: 12 0 0 0 0 0 0 0 0 0

Total # of neighbors = 0
Ave neighs/atom = 0
Ave special neighs/atom = 7.431875
Neighbor list builds = 66
Dangerous builds = 0


---------------------------------------------------------------------
      Device Time Info (average): 
---------------------------------------------------------------------
Data Transfer:   0.0182 s.
Neighbor copy:   0.0605 s.
Neighbor build:  0.2133 s.
Force calc:      0.7751 s.
Device Overhead: 0.4000 s.
Average split:   1.0000.
Lanes / atom:    8.
Vector width:    32.
Max Mem / Proc:  13.19 MB.
CPU Neighbor:    0.0230 s.
CPU Cast/Pack:   0.0710 s.
CPU Driver_Time: 0.0111 s.
CPU Idle_Time:   0.0877 s.
---------------------------------------------------------------------



---------------------------------------------------------------------
    Device Time Info (average) for kspace: 
---------------------------------------------------------------------
Data Out:        0.0097 s.
Data In:         0.0214 s.
Kernel (map):    0.4977 s.
Kernel (rho):    0.0690 s.
Force interp:    0.4636 s.
Total rho:       0.5764 s.
Total interp:    0.4851 s.
Force copy:      0.0108 s.
Total:           1.0722 s.
CPU Poisson:     0.6348 s.
CPU Data Cast:   0.0067 s.
CPU Idle Time:   0.4674 s.
Max Mem / Proc:  0.88 MB.
---------------------------------------------------------------------

Total wall time: 0:00:10
Intel(R) VTune(TM) Profiler 2022.1.0 collection completed successfully. Use the "aps --report /home/ubuntu/lammps/bench/aps_result_20220414" command to generate textual and HTML reports for the profiling session.
