LAMMPS (7 Jan 2022)
  using 1 OpenMP thread(s) per MPI task
Reading data file ...
  orthogonal box = (-27.5 -38.5 -36.3646) to (27.5 38.5 36.3615)
  2 by 7 by 2 MPI processor grid
  reading atoms ...
  32000 atoms
  reading velocities ...
  32000 velocities
  scanning bonds ...
  4 = max bonds/atom
  scanning angles ...
  8 = max angles/atom
  scanning dihedrals ...
  18 = max dihedrals/atom
  scanning impropers ...
  2 = max impropers/atom
  reading bonds ...
  27723 bonds
  reading angles ...
  40467 angles
  reading dihedrals ...
  56829 dihedrals
  reading impropers ...
  1034 impropers
Finding 1-2 1-3 1-4 neighbors ...
  special bond factors lj:    0        0        0       
  special bond factors coul:  0        0        0       
     4 = max # of 1-2 neighbors
    12 = max # of 1-3 neighbors
    24 = max # of 1-4 neighbors
    26 = max # of special neighbors
  special bonds CPU = 0.009 seconds
  read_data CPU = 0.605 seconds
Replicating atoms ...
  orthogonal box = (-27.5 -38.5 -36.3646) to (82.5 115.5 109.0876)
  2 by 7 by 2 MPI processor grid
  256000 atoms
  221784 bonds
  323736 angles
  454632 dihedrals
  8272 impropers
Finding 1-2 1-3 1-4 neighbors ...
  special bond factors lj:    0        0        0       
  special bond factors coul:  0        0        0       
     4 = max # of 1-2 neighbors
    12 = max # of 1-3 neighbors
    24 = max # of 1-4 neighbors
    26 = max # of special neighbors
  special bonds CPU = 0.021 seconds
  replicate CPU = 0.065 seconds
Finding SHAKE clusters ...
   12936 = # of size 2 clusters
   29064 = # of size 3 clusters
    5976 = # of size 4 clusters
   33864 = # of frozen angles
  find clusters CPU = 0.009 seconds

CITE-CITE-CITE-CITE-CITE-CITE-CITE-CITE-CITE-CITE-CITE-CITE-CITE

Your simulation uses code contributions which should be cited:
- GPU package (short-range, long-range and three-body potentials):
The log file lists these citations in BibTeX format.

CITE-CITE-CITE-CITE-CITE-CITE-CITE-CITE-CITE-CITE-CITE-CITE-CITE

PPPM initialization ...
  using 12-bit tables for long-range coulomb (../kspace.cpp:340)
  G vector (1/distance) = 0.32764763
  grid = 135 180 180
  stencil order = 5
  estimated absolute RMS force accuracy = 0.0003737576
  estimated relative force accuracy = 1.1255599e-06
  using single precision MKL FFT
  3d grid and FFT values/proc = 240075 170100

--------------------------------------------------------------------------
- Using acceleration for pppm:
-  with 14 proc(s) per device.
-  Horizontal vector operations: ENABLED
-  Shared memory system: No
--------------------------------------------------------------------------
Device 0: Tesla V100-SXM2-16GB, 80 CUs, 12/16 GB, 1.5 GHZ (Mixed Precision)
Device 1: Tesla V100-SXM2-16GB, 80 CUs, 1.5 GHZ (Mixed Precision)
--------------------------------------------------------------------------

Initializing Device and compiling on process 0...Done.
Initializing Devices 0-1 on core 0...Done.
Initializing Devices 0-1 on core 1...Done.
Initializing Devices 0-1 on core 2...Done.
Initializing Devices 0-1 on core 3...Done.
Initializing Devices 0-1 on core 4...Done.
Initializing Devices 0-1 on core 5...Done.
Initializing Devices 0-1 on core 6...Done.
Initializing Devices 0-1 on core 7...Done.
Initializing Devices 0-1 on core 8...Done.
Initializing Devices 0-1 on core 9...Done.
Initializing Devices 0-1 on core 10...Done.
Initializing Devices 0-1 on core 11...Done.
Initializing Devices 0-1 on core 12...Done.
Initializing Devices 0-1 on core 13...Done.


--------------------------------------------------------------------------
- Using acceleration for lj/charmm/coul/long:
-  with 14 proc(s) per device.
-  Horizontal vector operations: ENABLED
-  Shared memory system: No
--------------------------------------------------------------------------
Device 0: Tesla V100-SXM2-16GB, 80 CUs, 11/16 GB, 1.5 GHZ (Mixed Precision)
Device 1: Tesla V100-SXM2-16GB, 80 CUs, 1.5 GHZ (Mixed Precision)
--------------------------------------------------------------------------

Initializing Device and compiling on process 0...Done.
Initializing Devices 0-1 on core 0...Done.
Initializing Devices 0-1 on core 1...Done.
Initializing Devices 0-1 on core 2...Done.
Initializing Devices 0-1 on core 3...Done.
Initializing Devices 0-1 on core 4...Done.
Initializing Devices 0-1 on core 5...Done.
Initializing Devices 0-1 on core 6...Done.
Initializing Devices 0-1 on core 7...Done.
Initializing Devices 0-1 on core 8...Done.
Initializing Devices 0-1 on core 9...Done.
Initializing Devices 0-1 on core 10...Done.
Initializing Devices 0-1 on core 11...Done.
Initializing Devices 0-1 on core 12...Done.
Initializing Devices 0-1 on core 13...Done.

  generated 2278 of 2278 mixed pair_coeff terms from arithmetic mixing rule
Setting up Verlet run ...
  Unit style    : real
  Current step  : 0
  Time step     : 2
Per MPI rank memory allocation (min/avg/max) = 70.21 | 71.11 | 71.82 Mbytes
---------------- Step        0 ----- CPU =      0.0000 (sec) ----------------
TotEng   =   -202872.8596 KinEng   =    171558.6503 Temp     =       299.0288 
PotEng   =   -374431.5099 E_bond   =     20303.9521 E_angle  =     87370.9937 
E_dihed  =     41694.2920 E_impro  =      1708.0927 E_vdwl   =    -18462.9051 
E_coul   =   2336958.6052 E_long   =  -2844004.5404 Press    =      -152.9624 
Volume   =   2463960.2680 
---------------- Step       50 ----- CPU =      4.1001 (sec) ----------------
TotEng   =   -202663.8854 KinEng   =    172010.2525 Temp     =       299.8159 
PotEng   =   -374674.1379 E_bond   =     19773.3293 E_angle  =     86694.1626 
E_dihed  =     41915.8608 E_impro  =      1817.1485 E_vdwl   =    -15940.0904 
E_coul   =   2335195.6737 E_long   =  -2844130.2225 Press    =       234.7758 
Volume   =   2464248.9069 
---------------- Step      100 ----- CPU =      8.1997 (sec) ----------------
TotEng   =   -202303.2626 KinEng   =    172734.0181 Temp     =       301.0775 
PotEng   =   -375037.2807 E_bond   =     20542.9832 E_angle  =     86253.1146 
E_dihed  =     41588.5627 E_impro  =      1734.2866 E_vdwl   =    -15202.8617 
E_coul   =   2334127.2463 E_long   =  -2844080.6124 Press    =        12.1525 
Volume   =   2465060.1559 
Loop time of 8.19978 on 28 procs for 100 steps with 256000 atoms

Performance: 2.107 ns/day, 11.389 hours/ns, 12.195 timesteps/s
95.4% CPU use with 28 MPI tasks x 1 OpenMP threads

MPI task timing breakdown:
Section |  min time  |  avg time  |  max time  |%varavg| %total
---------------------------------------------------------------
Pair    | 0.40085    | 0.54659    | 0.68998    |   9.8 |  6.67
Bond    | 0.30174    | 0.32986    | 0.35742    |   3.1 |  4.02
Kspace  | 3.9192     | 3.9622     | 4.0024     |   1.2 | 48.32
Neigh   | 0.061401   | 0.06289    | 0.064408   |   0.3 |  0.77
Comm    | 0.19604    | 0.30448    | 0.38171    |  12.2 |  3.71
Output  | 0.00027648 | 0.00029524 | 0.00034544 |   0.0 |  0.00
Modify  | 2.55       | 2.7596     | 3.0459     |   8.9 | 33.65
Other   |            | 0.2339     |            |       |  2.85

Nlocal:        9142.86 ave        9208 max        9027 min
Histogram: 4 0 4 0 0 4 0 4 0 12
Nghost:        27273.7 ave       27470 max       27075 min
Histogram: 4 0 4 4 4 0 4 0 4 4
Neighs:              0 ave           0 max           0 min
Histogram: 28 0 0 0 0 0 0 0 0 0

Total # of neighbors = 0
Ave neighs/atom = 0
Ave special neighs/atom = 7.431875
Neighbor list builds = 11
Dangerous builds = 0


---------------------------------------------------------------------
      Device Time Info (average): 
---------------------------------------------------------------------
Data Transfer:   0.0075 s.
Neighbor copy:   0.0399 s.
Neighbor build:  0.1043 s.
Force calc:      0.3176 s.
Device Overhead: 0.1537 s.
Average split:   1.0000.
Lanes / atom:    8.
Vector width:    32.
Max Mem / Proc:  44.90 MB.
CPU Neighbor:    0.0231 s.
CPU Cast/Pack:   0.0365 s.
CPU Driver_Time: 0.0029 s.
CPU Idle_Time:   0.0013 s.
---------------------------------------------------------------------



---------------------------------------------------------------------
    Device Time Info (average) for kspace: 
---------------------------------------------------------------------
Data Out:        0.0146 s.
Data In:         0.4592 s.
Kernel (map):    0.2310 s.
Kernel (rho):    0.0143 s.
Force interp:    0.0312 s.
Total rho:       0.2599 s.
Total interp:    0.4904 s.
Force copy:      0.0149 s.
Total:           0.7652 s.
CPU Poisson:     3.7764 s.
CPU Data Cast:   0.0043 s.
CPU Idle Time:   0.2091 s.
Max Mem / Proc:  35.46 MB.
---------------------------------------------------------------------

Total wall time: 0:00:44
Intel(R) VTune(TM) Profiler 2022.2.0 collection completed successfully. Use the "aps --report /home/ubuntu/lammps/bench/aps_result_20220531" command to generate textual and HTML reports for the profiling session.
