LAMMPS (7 Jan 2022)
  using 1 OpenMP thread(s) per MPI task
New timer settings: style=full  mode=sync  timeout=off
Reading data file ...
  orthogonal box = (-27.5 -38.5 -36.3646) to (27.5 38.5 36.3615)
  3 by 4 by 4 MPI processor grid
  reading atoms ...
  32000 atoms
  reading velocities ...
  32000 velocities
  scanning bonds ...
  4 = max bonds/atom
  scanning angles ...
  8 = max angles/atom
  scanning dihedrals ...
  18 = max dihedrals/atom
  scanning impropers ...
  2 = max impropers/atom
  reading bonds ...
  27723 bonds
  reading angles ...
  40467 angles
  reading dihedrals ...
  56829 dihedrals
  reading impropers ...
  1034 impropers
Finding 1-2 1-3 1-4 neighbors ...
  special bond factors lj:    0        0        0       
  special bond factors coul:  0        0        0       
     4 = max # of 1-2 neighbors
    12 = max # of 1-3 neighbors
    24 = max # of 1-4 neighbors
    26 = max # of special neighbors
  special bonds CPU = 0.007 seconds
  read_data CPU = 0.338 seconds
Replicating atoms ...
  orthogonal box = (-27.5 -38.5 -36.3646) to (137.5 192.5 181.8137)
  3 by 4 by 4 MPI processor grid
  864000 atoms
  748521 bonds
  1092609 angles
  1534383 dihedrals
  27918 impropers
Finding 1-2 1-3 1-4 neighbors ...
  special bond factors lj:    0        0        0       
  special bond factors coul:  0        0        0       
     4 = max # of 1-2 neighbors
    12 = max # of 1-3 neighbors
    24 = max # of 1-4 neighbors
    26 = max # of special neighbors
  special bonds CPU = 0.042 seconds
  replicate CPU = 0.103 seconds
Finding SHAKE clusters ...
   43659 = # of size 2 clusters
   98091 = # of size 3 clusters
   20169 = # of size 4 clusters
  114291 = # of frozen angles
  find clusters CPU = 0.019 seconds

CITE-CITE-CITE-CITE-CITE-CITE-CITE-CITE-CITE-CITE-CITE-CITE-CITE

Your simulation uses code contributions which should be cited:
- GPU package (short-range, long-range and three-body potentials):
The log file lists these citations in BibTeX format.

CITE-CITE-CITE-CITE-CITE-CITE-CITE-CITE-CITE-CITE-CITE-CITE-CITE

PPPM initialization ...
  using 12-bit tables for long-range coulomb (../kspace.cpp:340)
  G vector (1/distance) = 0.24587501
  grid = 72 96 90
  stencil order = 5
  estimated absolute RMS force accuracy = 0.041154918
  estimated relative force accuracy = 0.00012393681
  using single precision MKL FFT
  3d grid and FFT values/proc = 23548 13824

--------------------------------------------------------------------------
- Using acceleration for pppm:
-  with 6 proc(s) per device.
-  Horizontal vector operations: ENABLED
-  Shared memory system: No
--------------------------------------------------------------------------
Device 0: Tesla V100-SXM2-16GB, 80 CUs, 14/16 GB, 1.5 GHZ (Mixed Precision)
Device 1: Tesla V100-SXM2-16GB, 80 CUs, 1.5 GHZ (Mixed Precision)
Device 2: Tesla V100-SXM2-16GB, 80 CUs, 1.5 GHZ (Mixed Precision)
Device 3: Tesla V100-SXM2-16GB, 80 CUs, 1.5 GHZ (Mixed Precision)
Device 4: Tesla V100-SXM2-16GB, 80 CUs, 1.5 GHZ (Mixed Precision)
Device 5: Tesla V100-SXM2-16GB, 80 CUs, 1.5 GHZ (Mixed Precision)
Device 6: Tesla V100-SXM2-16GB, 80 CUs, 1.5 GHZ (Mixed Precision)
Device 7: Tesla V100-SXM2-16GB, 80 CUs, 1.5 GHZ (Mixed Precision)
--------------------------------------------------------------------------

Initializing Device and compiling on process 0...Done.
Initializing Devices 0-7 on core 0...Done.
Initializing Devices 0-7 on core 1...Done.
Initializing Devices 0-7 on core 2...Done.
Initializing Devices 0-7 on core 3...Done.
Initializing Devices 0-7 on core 4...Done.
Initializing Devices 0-7 on core 5...Done.


--------------------------------------------------------------------------
- Using acceleration for lj/charmm/coul/long:
-  with 6 proc(s) per device.
-  Horizontal vector operations: ENABLED
-  Shared memory system: No
--------------------------------------------------------------------------
Device 0: Tesla V100-SXM2-16GB, 80 CUs, 14/16 GB, 1.5 GHZ (Mixed Precision)
Device 1: Tesla V100-SXM2-16GB, 80 CUs, 1.5 GHZ (Mixed Precision)
Device 2: Tesla V100-SXM2-16GB, 80 CUs, 1.5 GHZ (Mixed Precision)
Device 3: Tesla V100-SXM2-16GB, 80 CUs, 1.5 GHZ (Mixed Precision)
Device 4: Tesla V100-SXM2-16GB, 80 CUs, 1.5 GHZ (Mixed Precision)
Device 5: Tesla V100-SXM2-16GB, 80 CUs, 1.5 GHZ (Mixed Precision)
Device 6: Tesla V100-SXM2-16GB, 80 CUs, 1.5 GHZ (Mixed Precision)
Device 7: Tesla V100-SXM2-16GB, 80 CUs, 1.5 GHZ (Mixed Precision)
--------------------------------------------------------------------------

Initializing Device and compiling on process 0...Done.
Initializing Devices 0-7 on core 0...Done.
Initializing Devices 0-7 on core 1...Done.
Initializing Devices 0-7 on core 2...Done.
Initializing Devices 0-7 on core 3...Done.
Initializing Devices 0-7 on core 4...Done.
Initializing Devices 0-7 on core 5...Done.

  generated 2278 of 2278 mixed pair_coeff terms from arithmetic mixing rule
Setting up Verlet run ...
  Unit style    : real
  Current step  : 0
  Time step     : 2
Per MPI rank memory allocation (min/avg/max) = 74.46 | 74.48 | 74.51 Mbytes
---------------- Step        0 ----- CPU =      0.0000 (sec) ----------------
TotEng   =   -684607.4714 KinEng   =    579010.4447 Temp     =       299.0277 
PotEng   =  -1263617.9161 E_bond   =     68525.8383 E_angle  =    294877.1036 
E_dihed  =    140718.2355 E_impro  =      5764.8128 E_vdwl   =    -62312.3570 
E_coul   =   5503140.8793 E_long   =  -7214332.4287 Press    =      -148.7819 
Volume   =   8315865.9045 
---------------- Step       50 ----- CPU =      1.5205 (sec) ----------------
TotEng   =   -683885.4444 KinEng   =    580537.3334 Temp     =       299.8163 
PotEng   =  -1264422.7778 E_bond   =     66738.5303 E_angle  =    292590.9516 
E_dihed  =    141472.6695 E_impro  =      6132.6082 E_vdwl   =    -53808.7695 
E_coul   =   5496968.3423 E_long   =  -7214517.1102 Press    =       238.5947 
Volume   =   8316859.4033 
---------------- Step      100 ----- CPU =      3.0230 (sec) ----------------
TotEng   =   -682807.5710 KinEng   =    582947.7509 Temp     =       301.0611 
PotEng   =  -1265755.3220 E_bond   =     69340.3931 E_angle  =    291119.6223 
E_dihed  =    140358.5983 E_impro  =      5850.7791 E_vdwl   =    -51258.7379 
E_coul   =   5493199.4419 E_long   =  -7214365.4187 Press    =        10.9321 
Volume   =   8319641.0169 
Loop time of 3.02313 on 48 procs for 100 steps with 864000 atoms

Performance: 5.716 ns/day, 4.199 hours/ns, 33.078 timesteps/s
94.4% CPU use with 48 MPI tasks x 1 OpenMP threads

MPI task timing breakdown:
Section |  min time  |  avg time  |  max time  |%varavg|  %CPU | %total
-----------------------------------------------------------------------
Pair    | 0.24197    | 0.24876    | 0.25544    |   1.0 |  94.6 |  8.23
Bond    | 0.49791    | 0.63329    | 0.79341    |  13.3 |  98.6 | 20.95
Kspace  | 0.35481    | 0.35568    | 0.35621    |   0.1 |  90.1 | 11.77
Neigh   | 0.14127    | 0.14189    | 0.1421     |   0.1 |  95.2 |  4.69
Comm    | 0.27974    | 0.28423    | 0.2892     |   0.4 |  90.5 |  9.40
Output  | 0.00029918 | 0.0003039  | 0.00035953 |   0.0 | 100.0 |  0.01
Modify  | 0.81949    | 0.91042    | 0.93947    |   3.2 |  97.3 | 30.12
Sync    | 0.19843    | 0.38512    | 0.50631    |  16.0 |  86.9 | 12.74
Other   |            | 0.4486     |            |       |       | 14.84

Nlocal:          18000 ave       18185 max       17782 min
Histogram: 3 0 6 9 3 9 3 9 3 3
Nghost:        34692.2 ave       34888 max       34424 min
Histogram: 6 0 0 6 9 3 3 9 3 9
Neighs:              0 ave           0 max           0 min
Histogram: 48 0 0 0 0 0 0 0 0 0

Total # of neighbors = 0
Ave neighs/atom = 0
Ave special neighs/atom = 7.431875
Neighbor list builds = 11
Dangerous builds = 0


---------------------------------------------------------------------
      Device Time Info (average): 
---------------------------------------------------------------------
Data Transfer:   0.0097 s.
Neighbor copy:   0.0589 s.
Neighbor build:  0.0719 s.
Force calc:      0.2218 s.
Device Overhead: 0.0663 s.
Average split:   1.0000.
Lanes / atom:    8.
Vector width:    32.
Max Mem / Proc:  86.59 MB.
CPU Neighbor:    0.0307 s.
CPU Cast/Pack:   0.1218 s.
CPU Driver_Time: 0.0015 s.
CPU Idle_Time:   0.0033 s.
---------------------------------------------------------------------



---------------------------------------------------------------------
    Device Time Info (average) for kspace: 
---------------------------------------------------------------------
Data Out:        0.0049 s.
Data In:         0.0456 s.
Kernel (map):    0.1137 s.
Kernel (rho):    0.0172 s.
Force interp:    0.0456 s.
Total rho:       0.1358 s.
Total interp:    0.0912 s.
Force copy:      0.0145 s.
Total:           0.2416 s.
CPU Poisson:     0.3190 s.
CPU Data Cast:   0.0158 s.
CPU Idle Time:   0.0332 s.
Max Mem / Proc:  4.63 MB.
---------------------------------------------------------------------

Total wall time: 0:00:32
Intel(R) VTune(TM) Profiler 2022.1.0 collection completed successfully. Use the "aps --report /home/ubuntu/lammps/bench/aps_result_20220414" command to generate textual and HTML reports for the profiling session.
