LAMMPS (7 Jan 2022)
  using 1 OpenMP thread(s) per MPI task
Reading data file ...
  orthogonal box = (-27.5 -38.5 -36.3646) to (27.5 38.5 36.3615)
  2 by 4 by 2 MPI processor grid
  reading atoms ...
  32000 atoms
  reading velocities ...
  32000 velocities
  scanning bonds ...
  4 = max bonds/atom
  scanning angles ...
  8 = max angles/atom
  scanning dihedrals ...
  18 = max dihedrals/atom
  scanning impropers ...
  2 = max impropers/atom
  reading bonds ...
  27723 bonds
  reading angles ...
  40467 angles
  reading dihedrals ...
  56829 dihedrals
  reading impropers ...
  1034 impropers
Finding 1-2 1-3 1-4 neighbors ...
  special bond factors lj:    0        0        0       
  special bond factors coul:  0        0        0       
     4 = max # of 1-2 neighbors
    12 = max # of 1-3 neighbors
    24 = max # of 1-4 neighbors
    26 = max # of special neighbors
  special bonds CPU = 0.008 seconds
  read_data CPU = 0.401 seconds
Replicating atoms ...
  orthogonal box = (-27.5 -38.5 -36.3646) to (82.5 115.5 109.0876)
  2 by 4 by 2 MPI processor grid
  256000 atoms
  221784 bonds
  323736 angles
  454632 dihedrals
  8272 impropers
Finding 1-2 1-3 1-4 neighbors ...
  special bond factors lj:    0        0        0       
  special bond factors coul:  0        0        0       
     4 = max # of 1-2 neighbors
    12 = max # of 1-3 neighbors
    24 = max # of 1-4 neighbors
    26 = max # of special neighbors
  special bonds CPU = 0.030 seconds
  replicate CPU = 0.072 seconds
Finding SHAKE clusters ...
   12936 = # of size 2 clusters
   29064 = # of size 3 clusters
    5976 = # of size 4 clusters
   33864 = # of frozen angles
  find clusters CPU = 0.012 seconds

CITE-CITE-CITE-CITE-CITE-CITE-CITE-CITE-CITE-CITE-CITE-CITE-CITE

Your simulation uses code contributions which should be cited:
- GPU package (short-range, long-range and three-body potentials):
The log file lists these citations in BibTeX format.

CITE-CITE-CITE-CITE-CITE-CITE-CITE-CITE-CITE-CITE-CITE-CITE-CITE

PPPM initialization ...
  using 12-bit tables for long-range coulomb (../kspace.cpp:340)
  G vector (1/distance) = 0.24587501
  grid = 48 64 60
  stencil order = 5
  estimated absolute RMS force accuracy = 0.041154918
  estimated relative force accuracy = 0.00012393681
  using single precision MKL FFT
  3d grid and FFT values/proc = 21315 12288

--------------------------------------------------------------------------
- Using acceleration for pppm:
-  with 16 proc(s) per device.
-  Horizontal vector operations: ENABLED
-  Shared memory system: No
--------------------------------------------------------------------------
Device 0: Tesla V100-SXM2-16GB, 80 CUs, 11/16 GB, 1.5 GHZ (Double Precision)
--------------------------------------------------------------------------

Initializing Device and compiling on process 0...Done.
Initializing Device 0 on core 0...Done.
Initializing Device 0 on core 1...Done.
Initializing Device 0 on core 2...Done.
Initializing Device 0 on core 3...Done.
Initializing Device 0 on core 4...Done.
Initializing Device 0 on core 5...Done.
Initializing Device 0 on core 6...Done.
Initializing Device 0 on core 7...Done.
Initializing Device 0 on core 8...Done.
Initializing Device 0 on core 9...Done.
Initializing Device 0 on core 10...Done.
Initializing Device 0 on core 11...Done.
Initializing Device 0 on core 12...Done.
Initializing Device 0 on core 13...Done.
Initializing Device 0 on core 14...Done.
Initializing Device 0 on core 15...Done.


--------------------------------------------------------------------------
- Using acceleration for lj/charmm/coul/long:
-  with 16 proc(s) per device.
-  Horizontal vector operations: ENABLED
-  Shared memory system: No
--------------------------------------------------------------------------
Device 0: Tesla V100-SXM2-16GB, 80 CUs, 11/16 GB, 1.5 GHZ (Double Precision)
--------------------------------------------------------------------------

Initializing Device and compiling on process 0...Done.
Initializing Device 0 on core 0...Done.
Initializing Device 0 on core 1...Done.
Initializing Device 0 on core 2...Done.
Initializing Device 0 on core 3...Done.
Initializing Device 0 on core 4...Done.
Initializing Device 0 on core 5...Done.
Initializing Device 0 on core 6...Done.
Initializing Device 0 on core 7...Done.
Initializing Device 0 on core 8...Done.
Initializing Device 0 on core 9...Done.
Initializing Device 0 on core 10...Done.
Initializing Device 0 on core 11...Done.
Initializing Device 0 on core 12...Done.
Initializing Device 0 on core 13...Done.
Initializing Device 0 on core 14...Done.
Initializing Device 0 on core 15...Done.

  generated 2278 of 2278 mixed pair_coeff terms from arithmetic mixing rule
Setting up Verlet run ...
  Unit style    : real
  Current step  : 0
  Time step     : 2
Per MPI rank memory allocation (min/avg/max) = 75.77 | 75.83 | 75.86 Mbytes
---------------- Step        0 ----- CPU =      0.0000 (sec) ----------------
TotEng   =   -202846.6593 KinEng   =    171558.6503 Temp     =       299.0288 
PotEng   =   -374405.3096 E_bond   =     20303.9521 E_angle  =     87370.9937 
E_dihed  =     41694.2920 E_impro  =      1708.0927 E_vdwl   =    -18462.9073 
E_coul   =   1630560.2445 E_long   =  -2137579.9772 Press    =      -148.7691 
Volume   =   2463960.2680 
---------------- Step       50 ----- CPU =      1.6073 (sec) ----------------
TotEng   =   -202633.3673 KinEng   =    172010.7385 Temp     =       299.8168 
PotEng   =   -374644.1058 E_bond   =     19774.3528 E_angle  =     86693.5153 
E_dihed  =     41917.8125 E_impro  =      1817.0673 E_vdwl   =    -15943.3737 
E_coul   =   1628731.2207 E_long   =  -2137634.7008 Press    =       238.5827 
Volume   =   2464254.6336 
---------------- Step      100 ----- CPU =      3.2662 (sec) ----------------
TotEng   =   -202315.0412 KinEng   =    172724.3716 Temp     =       301.0607 
PotEng   =   -375039.4128 E_bond   =     20545.2157 E_angle  =     86257.3283 
E_dihed  =     41587.6712 E_impro  =      1733.5572 E_vdwl   =    -15187.7683 
E_coul   =   1627614.3429 E_long   =  -2137589.7599 Press    =        10.9291 
Volume   =   2465078.7615 
Loop time of 3.2663 on 16 procs for 100 steps with 256000 atoms

Performance: 5.290 ns/day, 4.537 hours/ns, 30.616 timesteps/s
98.0% CPU use with 16 MPI tasks x 1 OpenMP threads

MPI task timing breakdown:
Section |  min time  |  avg time  |  max time  |%varavg| %total
---------------------------------------------------------------
Pair    | 1.0683     | 1.1732     | 1.2415     |   3.8 | 35.92
Bond    | 0.52117    | 0.54643    | 0.56625    |   2.3 | 16.73
Kspace  | 0.56545    | 0.58344    | 0.60946    |   2.1 | 17.86
Neigh   | 0.083012   | 0.08431    | 0.086487   |   0.3 |  2.58
Comm    | 0.14985    | 0.15728    | 0.17254    |   2.0 |  4.82
Output  | 0.00026958 | 0.00027528 | 0.00032176 |   0.0 |  0.01
Modify  | 0.58478    | 0.68114    | 0.79135    |   5.3 | 20.85
Other   |            | 0.04026    |            |       |  1.23

Nlocal:          16000 ave       16102 max       15898 min
Histogram: 8 0 0 0 0 0 0 0 0 8
Nghost:          33482 ave       33491 max       33473 min
Histogram: 8 0 0 0 0 0 0 0 0 8
Neighs:              0 ave           0 max           0 min
Histogram: 16 0 0 0 0 0 0 0 0 0

Total # of neighbors = 0
Ave neighs/atom = 0
Ave special neighs/atom = 7.431875
Neighbor list builds = 11
Dangerous builds = 0


---------------------------------------------------------------------
      Device Time Info (average): 
---------------------------------------------------------------------
Data Transfer:   0.0087 s.
Neighbor copy:   0.0489 s.
Neighbor build:  0.1590 s.
Force calc:      0.8667 s.
Device Overhead: 0.1836 s.
Average split:   1.0000.
Lanes / atom:    8.
Vector width:    32.
Max Mem / Proc:  77.46 MB.
CPU Neighbor:    0.0210 s.
CPU Cast/Pack:   0.0604 s.
CPU Driver_Time: 0.0027 s.
CPU Idle_Time:   0.3607 s.
---------------------------------------------------------------------



---------------------------------------------------------------------
    Device Time Info (average) for kspace: 
---------------------------------------------------------------------
Data Out:        0.0058 s.
Data In:         0.0072 s.
Kernel (map):    0.3120 s.
Kernel (rho):    0.0150 s.
Force interp:    0.6566 s.
Total rho:       0.3328 s.
Total interp:    0.6638 s.
Force copy:      0.0063 s.
Total:           1.0029 s.
CPU Poisson:     0.3256 s.
CPU Data Cast:   0.0074 s.
CPU Idle Time:   0.2626 s.
Max Mem / Proc:  4.09 MB.
---------------------------------------------------------------------

Total wall time: 0:00:24
Intel(R) VTune(TM) Profiler 2022.2.0 collection completed successfully. Use the "aps --report /home/ubuntu/lammps/bench/aps_result_20220610" command to generate textual and HTML reports for the profiling session.
