LAMMPS (7 Jan 2022)
  using 1 OpenMP thread(s) per MPI task
New timer settings: style=full  mode=sync  timeout=off
Reading data file ...
  orthogonal box = (-27.5 -38.5 -36.3646) to (27.5 38.5 36.3615)
  3 by 4 by 4 MPI processor grid
  reading atoms ...
  32000 atoms
  reading velocities ...
  32000 velocities
  scanning bonds ...
  4 = max bonds/atom
  scanning angles ...
  8 = max angles/atom
  scanning dihedrals ...
  18 = max dihedrals/atom
  scanning impropers ...
  2 = max impropers/atom
  reading bonds ...
  27723 bonds
  reading angles ...
  40467 angles
  reading dihedrals ...
  56829 dihedrals
  reading impropers ...
  1034 impropers
Finding 1-2 1-3 1-4 neighbors ...
  special bond factors lj:    0        0        0       
  special bond factors coul:  0        0        0       
     4 = max # of 1-2 neighbors
    12 = max # of 1-3 neighbors
    24 = max # of 1-4 neighbors
    26 = max # of special neighbors
  special bonds CPU = 0.007 seconds
  read_data CPU = 0.337 seconds
Replicating atoms ...
  orthogonal box = (-27.5 -38.5 -36.3646) to (192.5 269.5 254.5398)
  3 by 4 by 4 MPI processor grid
  2048000 atoms
  1774272 bonds
  2589888 angles
  3637056 dihedrals
  66176 impropers
Finding 1-2 1-3 1-4 neighbors ...
  special bond factors lj:    0        0        0       
  special bond factors coul:  0        0        0       
     4 = max # of 1-2 neighbors
    12 = max # of 1-3 neighbors
    24 = max # of 1-4 neighbors
    26 = max # of special neighbors
  special bonds CPU = 0.083 seconds
  replicate CPU = 0.201 seconds
Finding SHAKE clusters ...
  103488 = # of size 2 clusters
  232512 = # of size 3 clusters
   47808 = # of size 4 clusters
  270912 = # of frozen angles
  find clusters CPU = 0.041 seconds

CITE-CITE-CITE-CITE-CITE-CITE-CITE-CITE-CITE-CITE-CITE-CITE-CITE

Your simulation uses code contributions which should be cited:
- GPU package (short-range, long-range and three-body potentials):
The log file lists these citations in BibTeX format.

CITE-CITE-CITE-CITE-CITE-CITE-CITE-CITE-CITE-CITE-CITE-CITE-CITE

PPPM initialization ...
  using 12-bit tables for long-range coulomb (../kspace.cpp:340)
  G vector (1/distance) = 0.24521748
  grid = 96 125 120
  stencil order = 5
  estimated absolute RMS force accuracy = 0.042505564
  estimated relative force accuracy = 0.00012800424
  using single precision MKL FFT
  3d grid and FFT values/proc = 47915 36000

--------------------------------------------------------------------------
- Using acceleration for pppm:
-  with 6 proc(s) per device.
-  Horizontal vector operations: ENABLED
-  Shared memory system: No
--------------------------------------------------------------------------
Device 0: Tesla V100-SXM2-16GB, 80 CUs, 14/16 GB, 1.5 GHZ (Mixed Precision)
Device 1: Tesla V100-SXM2-16GB, 80 CUs, 1.5 GHZ (Mixed Precision)
Device 2: Tesla V100-SXM2-16GB, 80 CUs, 1.5 GHZ (Mixed Precision)
Device 3: Tesla V100-SXM2-16GB, 80 CUs, 1.5 GHZ (Mixed Precision)
Device 4: Tesla V100-SXM2-16GB, 80 CUs, 1.5 GHZ (Mixed Precision)
Device 5: Tesla V100-SXM2-16GB, 80 CUs, 1.5 GHZ (Mixed Precision)
Device 6: Tesla V100-SXM2-16GB, 80 CUs, 1.5 GHZ (Mixed Precision)
Device 7: Tesla V100-SXM2-16GB, 80 CUs, 1.5 GHZ (Mixed Precision)
--------------------------------------------------------------------------

Initializing Device and compiling on process 0...Done.
Initializing Devices 0-7 on core 0...Done.
Initializing Devices 0-7 on core 1...Done.
Initializing Devices 0-7 on core 2...Done.
Initializing Devices 0-7 on core 3...Done.
Initializing Devices 0-7 on core 4...Done.
Initializing Devices 0-7 on core 5...Done.


--------------------------------------------------------------------------
- Using acceleration for lj/charmm/coul/long:
-  with 6 proc(s) per device.
-  Horizontal vector operations: ENABLED
-  Shared memory system: No
--------------------------------------------------------------------------
Device 0: Tesla V100-SXM2-16GB, 80 CUs, 14/16 GB, 1.5 GHZ (Mixed Precision)
Device 1: Tesla V100-SXM2-16GB, 80 CUs, 1.5 GHZ (Mixed Precision)
Device 2: Tesla V100-SXM2-16GB, 80 CUs, 1.5 GHZ (Mixed Precision)
Device 3: Tesla V100-SXM2-16GB, 80 CUs, 1.5 GHZ (Mixed Precision)
Device 4: Tesla V100-SXM2-16GB, 80 CUs, 1.5 GHZ (Mixed Precision)
Device 5: Tesla V100-SXM2-16GB, 80 CUs, 1.5 GHZ (Mixed Precision)
Device 6: Tesla V100-SXM2-16GB, 80 CUs, 1.5 GHZ (Mixed Precision)
Device 7: Tesla V100-SXM2-16GB, 80 CUs, 1.5 GHZ (Mixed Precision)
--------------------------------------------------------------------------

Initializing Device and compiling on process 0...Done.
Initializing Devices 0-7 on core 0...Done.
Initializing Devices 0-7 on core 1...Done.
Initializing Devices 0-7 on core 2...Done.
Initializing Devices 0-7 on core 3...Done.
Initializing Devices 0-7 on core 4...Done.
Initializing Devices 0-7 on core 5...Done.

  generated 2278 of 2278 mixed pair_coeff terms from arithmetic mixing rule
Setting up Verlet run ...
  Unit style    : real
  Current step  : 0
  Time step     : 2
Per MPI rank memory allocation (min/avg/max) = 133.7 | 134 | 134.2 Mbytes
---------------- Step        0 ----- CPU =      0.0000 (sec) ----------------
TotEng   =  -1622757.0486 KinEng   =   1372469.2022 Temp     =       299.0274 
PotEng   =  -2995226.2508 E_bond   =    162431.6167 E_angle  =    698967.9493 
E_dihed  =    333554.3360 E_impro  =     13664.7415 E_vdwl   =   -147703.3196 
E_coul   =  12998901.2598 E_long   = -17055042.8345 Press    =      -148.6931 
Volume   =  19711682.1440 
---------------- Step       50 ----- CPU =      3.2008 (sec) ----------------
TotEng   =  -1621040.3131 KinEng   =   1376072.6097 Temp     =       299.8125 
PotEng   =  -2997112.9228 E_bond   =    158195.5652 E_angle  =    693548.5053 
E_dihed  =    335344.2035 E_impro  =     14535.9728 E_vdwl   =   -127551.9658 
E_coul   =  12984287.7271 E_long   = -17055472.9310 Press    =       238.7550 
Volume   =  19714039.4525 
---------------- Step      100 ----- CPU =      6.4077 (sec) ----------------
TotEng   =  -1618501.4737 KinEng   =   1381843.7540 Temp     =       301.0699 
PotEng   =  -3000345.2277 E_bond   =    164361.2527 E_angle  =    690056.9742 
E_dihed  =    332707.9674 E_impro  =     13870.0756 E_vdwl   =   -121504.8196 
E_coul   =  12975295.1275 E_long   = -17055131.8054 Press    =        11.4604 
Volume   =  19720645.0481 
Loop time of 6.40776 on 48 procs for 100 steps with 2048000 atoms

Performance: 2.697 ns/day, 8.900 hours/ns, 15.606 timesteps/s
95.4% CPU use with 48 MPI tasks x 1 OpenMP threads

MPI task timing breakdown:
Section |  min time  |  avg time  |  max time  |%varavg|  %CPU | %total
-----------------------------------------------------------------------
Pair    | 0.51127    | 0.52111    | 0.53233    |   1.0 |  95.1 |  8.13
Bond    | 1.5373     | 1.5772     | 1.6444     |   2.6 |  99.5 | 24.61
Kspace  | 0.74995    | 0.75054    | 0.75068    |   0.0 |  90.6 | 11.71
Neigh   | 0.29863    | 0.29866    | 0.29909    |   0.0 |  92.4 |  4.66
Comm    | 0.51863    | 0.52502    | 0.53039    |   0.3 |  91.3 |  8.19
Output  | 0.00048507 | 0.00049098 | 0.00055215 |   0.0 | 100.0 |  0.01
Modify  | 1.975      | 2.0751     | 2.1704     |   5.8 |  98.0 | 32.38
Sync    | 0.3763     | 0.51888    | 0.64004    |  12.3 |  86.3 |  8.10
Other   |            | 0.6596     |            |       |       | 10.29

Nlocal:        42666.7 ave       42696 max       42630 min
Histogram: 16 0 0 0 0 0 16 0 0 16
Nghost:        55815.8 ave       55850 max       55795 min
Histogram: 20 8 4 0 0 0 0 0 4 12
Neighs:              0 ave           0 max           0 min
Histogram: 48 0 0 0 0 0 0 0 0 0

Total # of neighbors = 0
Ave neighs/atom = 0
Ave special neighs/atom = 7.431875
Neighbor list builds = 11
Dangerous builds = 0


---------------------------------------------------------------------
      Device Time Info (average): 
---------------------------------------------------------------------
Data Transfer:   0.0233 s.
Neighbor copy:   0.1388 s.
Neighbor build:  0.2197 s.
Force calc:      0.2584 s.
Device Overhead: 0.0648 s.
Average split:   1.0000.
Lanes / atom:    8.
Vector width:    32.
Max Mem / Proc:  198.74 MB.
CPU Neighbor:    0.0571 s.
CPU Cast/Pack:   0.2582 s.
CPU Driver_Time: 0.0015 s.
CPU Idle_Time:   0.0059 s.
---------------------------------------------------------------------



---------------------------------------------------------------------
    Device Time Info (average) for kspace: 
---------------------------------------------------------------------
Data Out:        0.0096 s.
Data In:         0.0904 s.
Kernel (map):    0.1557 s.
Kernel (rho):    0.0220 s.
Force interp:    0.0560 s.
Total rho:       0.1874 s.
Total interp:    0.1465 s.
Force copy:      0.0805 s.
Total:           0.4144 s.
CPU Poisson:     0.6713 s.
CPU Data Cast:   0.0595 s.
CPU Idle Time:   0.0823 s.
Max Mem / Proc:  10.50 MB.
---------------------------------------------------------------------

Total wall time: 0:00:36
Intel(R) VTune(TM) Profiler 2022.1.0 collection completed successfully. Use the "aps --report /home/ubuntu/lammps/bench/aps_result_20220414" command to generate textual and HTML reports for the profiling session.
