LAMMPS (7 Jan 2022)
  using 1 OpenMP thread(s) per MPI task
New timer settings: style=full  mode=sync  timeout=off
Reading data file ...
  orthogonal box = (-27.5 -38.5 -36.3646) to (27.5 38.5 36.3615)
  3 by 4 by 4 MPI processor grid
  reading atoms ...
  32000 atoms
  reading velocities ...
  32000 velocities
  scanning bonds ...
  4 = max bonds/atom
  scanning angles ...
  8 = max angles/atom
  scanning dihedrals ...
  18 = max dihedrals/atom
  scanning impropers ...
  2 = max impropers/atom
  reading bonds ...
  27723 bonds
  reading angles ...
  40467 angles
  reading dihedrals ...
  56829 dihedrals
  reading impropers ...
  1034 impropers
Finding 1-2 1-3 1-4 neighbors ...
  special bond factors lj:    0        0        0       
  special bond factors coul:  0        0        0       
     4 = max # of 1-2 neighbors
    12 = max # of 1-3 neighbors
    24 = max # of 1-4 neighbors
    26 = max # of special neighbors
  special bonds CPU = 0.007 seconds
  read_data CPU = 0.336 seconds
Replicating atoms ...
  orthogonal box = (-27.5 -38.5 -36.3646) to (82.5 115.5 109.0876)
  3 by 4 by 4 MPI processor grid
  256000 atoms
  221784 bonds
  323736 angles
  454632 dihedrals
  8272 impropers
Finding 1-2 1-3 1-4 neighbors ...
  special bond factors lj:    0        0        0       
  special bond factors coul:  0        0        0       
     4 = max # of 1-2 neighbors
    12 = max # of 1-3 neighbors
    24 = max # of 1-4 neighbors
    26 = max # of special neighbors
  special bonds CPU = 0.016 seconds
  replicate CPU = 0.055 seconds
Finding SHAKE clusters ...
   12936 = # of size 2 clusters
   29064 = # of size 3 clusters
    5976 = # of size 4 clusters
   33864 = # of frozen angles
  find clusters CPU = 0.007 seconds

CITE-CITE-CITE-CITE-CITE-CITE-CITE-CITE-CITE-CITE-CITE-CITE-CITE

Your simulation uses code contributions which should be cited:
- GPU package (short-range, long-range and three-body potentials):
The log file lists these citations in BibTeX format.

CITE-CITE-CITE-CITE-CITE-CITE-CITE-CITE-CITE-CITE-CITE-CITE-CITE

PPPM initialization ...
  using 12-bit tables for long-range coulomb (../kspace.cpp:340)
  G vector (1/distance) = 0.24587501
  grid = 48 64 60
  stencil order = 5
  estimated absolute RMS force accuracy = 0.041154918
  estimated relative force accuracy = 0.00012393681
  using single precision MKL FFT
  3d grid and FFT values/proc = 8820 6144

--------------------------------------------------------------------------
- Using acceleration for pppm:
-  with 8 proc(s) per device.
-  Horizontal vector operations: ENABLED
-  Shared memory system: No
--------------------------------------------------------------------------
Device 0: Tesla V100-SXM2-16GB, 80 CUs, 13/16 GB, 1.5 GHZ (Mixed Precision)
Device 1: Tesla V100-SXM2-16GB, 80 CUs, 1.5 GHZ (Mixed Precision)
Device 2: Tesla V100-SXM2-16GB, 80 CUs, 1.5 GHZ (Mixed Precision)
Device 3: Tesla V100-SXM2-16GB, 80 CUs, 1.5 GHZ (Mixed Precision)
Device 4: Tesla V100-SXM2-16GB, 80 CUs, 1.5 GHZ (Mixed Precision)
Device 5: Tesla V100-SXM2-16GB, 80 CUs, 1.5 GHZ (Mixed Precision)
--------------------------------------------------------------------------

Initializing Device and compiling on process 0...Done.
Initializing Devices 0-5 on core 0...Done.
Initializing Devices 0-5 on core 1...Done.
Initializing Devices 0-5 on core 2...Done.
Initializing Devices 0-5 on core 3...Done.
Initializing Devices 0-5 on core 4...Done.
Initializing Devices 0-5 on core 5...Done.
Initializing Devices 0-5 on core 6...Done.
Initializing Devices 0-5 on core 7...Done.


--------------------------------------------------------------------------
- Using acceleration for lj/charmm/coul/long:
-  with 8 proc(s) per device.
-  Horizontal vector operations: ENABLED
-  Shared memory system: No
--------------------------------------------------------------------------
Device 0: Tesla V100-SXM2-16GB, 80 CUs, 13/16 GB, 1.5 GHZ (Mixed Precision)
Device 1: Tesla V100-SXM2-16GB, 80 CUs, 1.5 GHZ (Mixed Precision)
Device 2: Tesla V100-SXM2-16GB, 80 CUs, 1.5 GHZ (Mixed Precision)
Device 3: Tesla V100-SXM2-16GB, 80 CUs, 1.5 GHZ (Mixed Precision)
Device 4: Tesla V100-SXM2-16GB, 80 CUs, 1.5 GHZ (Mixed Precision)
Device 5: Tesla V100-SXM2-16GB, 80 CUs, 1.5 GHZ (Mixed Precision)
--------------------------------------------------------------------------

Initializing Device and compiling on process 0...Done.
Initializing Devices 0-5 on core 0...Done.
Initializing Devices 0-5 on core 1...Done.
Initializing Devices 0-5 on core 2...Done.
Initializing Devices 0-5 on core 3...Done.
Initializing Devices 0-5 on core 4...Done.
Initializing Devices 0-5 on core 5...Done.
Initializing Devices 0-5 on core 6...Done.
Initializing Devices 0-5 on core 7...Done.

  generated 2278 of 2278 mixed pair_coeff terms from arithmetic mixing rule
Setting up Verlet run ...
  Unit style    : real
  Current step  : 0
  Time step     : 2
Per MPI rank memory allocation (min/avg/max) = 36.51 | 36.56 | 36.69 Mbytes
---------------- Step        0 ----- CPU =      0.0000 (sec) ----------------
TotEng   =   -202846.6815 KinEng   =    171558.6503 Temp     =       299.0288 
PotEng   =   -374405.3317 E_bond   =     20303.9521 E_angle  =     87370.9937 
E_dihed  =     41694.2920 E_impro  =      1708.0927 E_vdwl   =    -18462.9051 
E_coul   =   1630560.2223 E_long   =  -2137579.9794 Press    =      -148.7798 
Volume   =   2463960.2680 
---------------- Step       50 ----- CPU =      0.5562 (sec) ----------------
TotEng   =   -202633.3866 KinEng   =    172010.7457 Temp     =       299.8168 
PotEng   =   -374644.1324 E_bond   =     19774.3531 E_angle  =     86693.5104 
E_dihed  =     41917.8104 E_impro  =      1817.0672 E_vdwl   =    -15943.3793 
E_coul   =   1628731.2091 E_long   =  -2137634.7032 Press    =       238.5791 
Volume   =   2464254.6360 
---------------- Step      100 ----- CPU =      1.1573 (sec) ----------------
TotEng   =   -202315.0529 KinEng   =    172724.4153 Temp     =       301.0607 
PotEng   =   -375039.4682 E_bond   =     20545.2211 E_angle  =     86257.3338 
E_dihed  =     41587.6732 E_impro  =      1733.5573 E_vdwl   =    -15187.8653 
E_coul   =   1627614.3741 E_long   =  -2137589.7623 Press    =        10.9127 
Volume   =   2465078.7649 
Loop time of 1.1574 on 48 procs for 100 steps with 256000 atoms

Performance: 14.930 ns/day, 1.607 hours/ns, 86.401 timesteps/s
94.0% CPU use with 48 MPI tasks x 1 OpenMP threads

MPI task timing breakdown:
Section |  min time  |  avg time  |  max time  |%varavg|  %CPU | %total
-----------------------------------------------------------------------
Pair    | 0.096434   | 0.12863    | 0.15782    |   5.4 |  95.5 | 11.11
Bond    | 0.17211    | 0.19841    | 0.21793    |   3.0 |  97.3 | 17.14
Kspace  | 0.24486    | 0.24568    | 0.24602    |   0.0 |  93.1 | 21.23
Neigh   | 0.029592   | 0.029623   | 0.029655   |   0.0 |  96.8 |  2.56
Comm    | 0.098209   | 0.09986    | 0.1018     |   0.3 |  91.6 |  8.63
Output  | 0.00021879 | 0.0002226  | 0.00026302 |   0.0 | 100.0 |  0.02
Modify  | 0.23762    | 0.2564     | 0.29027    |   3.8 |  93.4 | 22.15
Sync    | 0.13185    | 0.17983    | 0.2238     |   5.6 |  92.1 | 15.54
Other   |            | 0.1986     |            |       |       | 17.16

Nlocal:        5333.33 ave        5452 max        5268 min
Histogram: 12 8 8 4 4 0 4 0 0 8
Nghost:        18256.2 ave       18324 max       18178 min
Histogram: 4 4 0 8 8 0 4 16 0 4
Neighs:              0 ave           0 max           0 min
Histogram: 48 0 0 0 0 0 0 0 0 0

Total # of neighbors = 0
Ave neighs/atom = 0
Ave special neighs/atom = 7.431875
Neighbor list builds = 11
Dangerous builds = 0


---------------------------------------------------------------------
      Device Time Info (average): 
---------------------------------------------------------------------
Data Transfer:   0.0051 s.
Neighbor copy:   0.0207 s.
Neighbor build:  0.0544 s.
Force calc:      0.1881 s.
Device Overhead: 0.0847 s.
Average split:   1.0000.
Lanes / atom:    8.
Vector width:    32.
Max Mem / Proc:  25.90 MB.
CPU Neighbor:    0.0270 s.
CPU Cast/Pack:   0.0328 s.
CPU Driver_Time: 0.0016 s.
CPU Idle_Time:   0.0012 s.
---------------------------------------------------------------------



---------------------------------------------------------------------
    Device Time Info (average) for kspace: 
---------------------------------------------------------------------
Data Out:        0.0025 s.
Data In:         0.0144 s.
Kernel (map):    0.1171 s.
Kernel (rho):    0.0134 s.
Force interp:    0.0623 s.
Total rho:       0.1329 s.
Total interp:    0.0767 s.
Force copy:      0.0032 s.
Total:           0.2129 s.
CPU Poisson:     0.1728 s.
CPU Data Cast:   0.0021 s.
CPU Idle Time:   0.0754 s.
Max Mem / Proc:  1.44 MB.
---------------------------------------------------------------------

Total wall time: 0:00:29
Intel(R) VTune(TM) Profiler 2022.1.0 collection completed successfully. Use the "aps --report /home/ubuntu/lammps/bench/aps_result_20220414" command to generate textual and HTML reports for the profiling session.
