LAMMPS (7 Jan 2022)
  using 1 OpenMP thread(s) per MPI task
Reading data file ...
  orthogonal box = (-27.5 -38.5 -36.3646) to (27.5 38.5 36.3615)
  3 by 4 by 4 MPI processor grid
  reading atoms ...
  32000 atoms
  reading velocities ...
  32000 velocities
  scanning bonds ...
  4 = max bonds/atom
  scanning angles ...
  8 = max angles/atom
  scanning dihedrals ...
  18 = max dihedrals/atom
  scanning impropers ...
  2 = max impropers/atom
  reading bonds ...
  27723 bonds
  reading angles ...
  40467 angles
  reading dihedrals ...
  56829 dihedrals
  reading impropers ...
  1034 impropers
Finding 1-2 1-3 1-4 neighbors ...
  special bond factors lj:    0        0        0       
  special bond factors coul:  0        0        0       
     4 = max # of 1-2 neighbors
    12 = max # of 1-3 neighbors
    24 = max # of 1-4 neighbors
    26 = max # of special neighbors
  special bonds CPU = 0.007 seconds
  read_data CPU = 0.426 seconds
Replicating atoms ...
  orthogonal box = (-27.5 -38.5 -36.3646) to (192.5 269.5 254.5398)
  3 by 4 by 4 MPI processor grid
  2048000 atoms
  1774272 bonds
  2589888 angles
  3637056 dihedrals
  66176 impropers
Finding 1-2 1-3 1-4 neighbors ...
  special bond factors lj:    0        0        0       
  special bond factors coul:  0        0        0       
     4 = max # of 1-2 neighbors
    12 = max # of 1-3 neighbors
    24 = max # of 1-4 neighbors
    26 = max # of special neighbors
  special bonds CPU = 0.091 seconds
  replicate CPU = 0.217 seconds
Finding SHAKE clusters ...
  103488 = # of size 2 clusters
  232512 = # of size 3 clusters
   47808 = # of size 4 clusters
  270912 = # of frozen angles
  find clusters CPU = 0.052 seconds

CITE-CITE-CITE-CITE-CITE-CITE-CITE-CITE-CITE-CITE-CITE-CITE-CITE

Your simulation uses code contributions which should be cited:
- GPU package (short-range, long-range and three-body potentials):
The log file lists these citations in BibTeX format.

CITE-CITE-CITE-CITE-CITE-CITE-CITE-CITE-CITE-CITE-CITE-CITE-CITE

PPPM initialization ...
  using 12-bit tables for long-range coulomb (../kspace.cpp:340)
  G vector (1/distance) = 0.24521748
  grid = 96 125 120
  stencil order = 5
  estimated absolute RMS force accuracy = 0.042505564
  estimated relative force accuracy = 0.00012800424
  using single precision MKL FFT
  3d grid and FFT values/proc = 47915 36000

--------------------------------------------------------------------------
- Using acceleration for pppm:
-  with 24 proc(s) per device.
-  Horizontal vector operations: ENABLED
-  Shared memory system: No
--------------------------------------------------------------------------
Device 0: Tesla V100-SXM2-16GB, 80 CUs, 8.7/16 GB, 1.5 GHZ (Double Precision)
Device 1: Tesla V100-SXM2-16GB, 80 CUs, 1.5 GHZ (Double Precision)
--------------------------------------------------------------------------

Initializing Device and compiling on process 0...Done.
Initializing Devices 0-1 on core 0...Done.
Initializing Devices 0-1 on core 1...Done.
Initializing Devices 0-1 on core 2...Done.
Initializing Devices 0-1 on core 3...Done.
Initializing Devices 0-1 on core 4...Done.
Initializing Devices 0-1 on core 5...Done.
Initializing Devices 0-1 on core 6...Done.
Initializing Devices 0-1 on core 7...Done.
Initializing Devices 0-1 on core 8...Done.
Initializing Devices 0-1 on core 9...Done.
Initializing Devices 0-1 on core 10...Done.
Initializing Devices 0-1 on core 11...Done.
Initializing Devices 0-1 on core 12...Done.
Initializing Devices 0-1 on core 13...Done.
Initializing Devices 0-1 on core 14...Done.
Initializing Devices 0-1 on core 15...Done.
Initializing Devices 0-1 on core 16...Done.
Initializing Devices 0-1 on core 17...Done.
Initializing Devices 0-1 on core 18...Done.
Initializing Devices 0-1 on core 19...Done.
Initializing Devices 0-1 on core 20...Done.
Initializing Devices 0-1 on core 21...Done.
Initializing Devices 0-1 on core 22...Done.
Initializing Devices 0-1 on core 23...Done.


--------------------------------------------------------------------------
- Using acceleration for lj/charmm/coul/long:
-  with 24 proc(s) per device.
-  Horizontal vector operations: ENABLED
-  Shared memory system: No
--------------------------------------------------------------------------
Device 0: Tesla V100-SXM2-16GB, 80 CUs, 8.3/16 GB, 1.5 GHZ (Double Precision)
Device 1: Tesla V100-SXM2-16GB, 80 CUs, 1.5 GHZ (Double Precision)
--------------------------------------------------------------------------

Initializing Device and compiling on process 0...Done.
Initializing Devices 0-1 on core 0...Done.
Initializing Devices 0-1 on core 1...Done.
Initializing Devices 0-1 on core 2...Done.
Initializing Devices 0-1 on core 3...Done.
Initializing Devices 0-1 on core 4...Done.
Initializing Devices 0-1 on core 5...Done.
Initializing Devices 0-1 on core 6...Done.
Initializing Devices 0-1 on core 7...Done.
Initializing Devices 0-1 on core 8...Done.
Initializing Devices 0-1 on core 9...Done.
Initializing Devices 0-1 on core 10...Done.
Initializing Devices 0-1 on core 11...Done.
Initializing Devices 0-1 on core 12...Done.
Initializing Devices 0-1 on core 13...Done.
Initializing Devices 0-1 on core 14...Done.
Initializing Devices 0-1 on core 15...Done.
Initializing Devices 0-1 on core 16...Done.
Initializing Devices 0-1 on core 17...Done.
Initializing Devices 0-1 on core 18...Done.
Initializing Devices 0-1 on core 19...Done.
Initializing Devices 0-1 on core 20...Done.
Initializing Devices 0-1 on core 21...Done.
Initializing Devices 0-1 on core 22...Done.
Initializing Devices 0-1 on core 23...Done.

  generated 2278 of 2278 mixed pair_coeff terms from arithmetic mixing rule
Setting up Verlet run ...
  Unit style    : real
  Current step  : 0
  Time step     : 2
Per MPI rank memory allocation (min/avg/max) = 137.9 | 138.1 | 138.4 Mbytes
---------------- Step        0 ----- CPU =      0.0000 (sec) ----------------
TotEng   =  -1622759.0963 KinEng   =   1372469.2022 Temp     =       299.0274 
PotEng   =  -2995228.2985 E_bond   =    162431.6167 E_angle  =    698967.9493 
E_dihed  =    333554.3360 E_impro  =     13664.7415 E_vdwl   =   -147703.2586 
E_coul   =  12998899.1383 E_long   = -17055042.8216 Press    =      -148.6837 
Volume   =  19711682.1440 
---------------- Step       50 ----- CPU =      5.0128 (sec) ----------------
TotEng   =  -1621042.9120 KinEng   =   1376072.6679 Temp     =       299.8125 
PotEng   =  -2997115.5800 E_bond   =    158195.5454 E_angle  =    693548.5168 
E_dihed  =    335344.2035 E_impro  =     14535.9738 E_vdwl   =   -127551.8838 
E_coul   =  12984284.9929 E_long   = -17055472.9286 Press    =       238.7609 
Volume   =  19714039.4903 
---------------- Step      100 ----- CPU =     10.2658 (sec) ----------------
TotEng   =  -1618504.4870 KinEng   =   1381844.2006 Temp     =       301.0700 
PotEng   =  -3000348.6876 E_bond   =    164361.2216 E_angle  =    690056.8760 
E_dihed  =    332707.9452 E_impro  =     13870.0453 E_vdwl   =   -121504.1379 
E_coul   =  12975291.1475 E_long   = -17055131.7852 Press    =        11.4711 
Volume   =  19720645.0691 
Loop time of 10.2659 on 48 procs for 100 steps with 2048000 atoms

Performance: 1.683 ns/day, 14.258 hours/ns, 9.741 timesteps/s
96.1% CPU use with 48 MPI tasks x 1 OpenMP threads

MPI task timing breakdown:
Section |  min time  |  avg time  |  max time  |%varavg| %total
---------------------------------------------------------------
Pair    | 2.491      | 2.6179     | 2.7128     |   3.2 | 25.50
Bond    | 1.5113     | 1.5716     | 1.6433     |   2.9 | 15.31
Kspace  | 2.7818     | 2.8564     | 2.9099     |   2.3 | 27.82
Neigh   | 0.28484    | 0.28715    | 0.2894     |   0.2 |  2.80
Comm    | 0.48206    | 0.5379     | 0.59807    |   5.9 |  5.24
Output  | 0.00058838 | 0.00061672 | 0.0006891  |   0.0 |  0.01
Modify  | 2.0247     | 2.1988     | 2.4084     |   7.0 | 21.42
Other   |            | 0.1956     |            |       |  1.90

Nlocal:        42666.7 ave       42696 max       42630 min
Histogram: 16 0 0 0 0 0 16 0 0 16
Nghost:        55815.8 ave       55850 max       55795 min
Histogram: 20 8 4 0 0 0 0 0 4 12
Neighs:              0 ave           0 max           0 min
Histogram: 48 0 0 0 0 0 0 0 0 0

Total # of neighbors = 0
Ave neighs/atom = 0
Ave special neighs/atom = 7.431875
Neighbor list builds = 11
Dangerous builds = 0


---------------------------------------------------------------------
      Device Time Info (average): 
---------------------------------------------------------------------
Data Transfer:   0.0228 s.
Neighbor copy:   0.3237 s.
Neighbor build:  0.9342 s.
Force calc:      1.7216 s.
Device Overhead: 0.2417 s.
Average split:   1.0000.
Lanes / atom:    8.
Vector width:    32.
Max Mem / Proc:  200.88 MB.
CPU Neighbor:    0.0897 s.
CPU Cast/Pack:   0.2659 s.
CPU Driver_Time: 0.0033 s.
CPU Idle_Time:   0.4649 s.
---------------------------------------------------------------------



---------------------------------------------------------------------
    Device Time Info (average) for kspace: 
---------------------------------------------------------------------
Data Out:        0.0131 s.
Data In:         0.0611 s.
Kernel (map):    0.8718 s.
Kernel (rho):    0.0204 s.
Force interp:    1.4682 s.
Total rho:       0.9053 s.
Total interp:    1.5292 s.
Force copy:      0.0569 s.
Total:           2.4914 s.
CPU Poisson:     1.5922 s.
CPU Data Cast:   0.0270 s.
CPU Idle Time:   1.3211 s.
Max Mem / Proc:  10.50 MB.
---------------------------------------------------------------------

Total wall time: 0:01:16
Intel(R) VTune(TM) Profiler 2022.2.0 collection completed successfully. Use the "aps --report /home/ubuntu/lammps/bench/aps_result_20220610" command to generate textual and HTML reports for the profiling session.
