LAMMPS (7 Jan 2022)
  using 1 OpenMP thread(s) per MPI task
New timer settings: style=full  mode=nosync  timeout=off
Reading data file ...
  orthogonal box = (-27.5 -38.5 -36.3646) to (27.5 38.5 36.3615)
  2 by 4 by 3 MPI processor grid
  reading atoms ...
  32000 atoms
  reading velocities ...
  32000 velocities
  scanning bonds ...
  4 = max bonds/atom
  scanning angles ...
  8 = max angles/atom
  scanning dihedrals ...
  18 = max dihedrals/atom
  scanning impropers ...
  2 = max impropers/atom
  reading bonds ...
  27723 bonds
  reading angles ...
  40467 angles
  reading dihedrals ...
  56829 dihedrals
  reading impropers ...
  1034 impropers
Finding 1-2 1-3 1-4 neighbors ...
  special bond factors lj:    0        0        0       
  special bond factors coul:  0        0        0       
     4 = max # of 1-2 neighbors
    12 = max # of 1-3 neighbors
    24 = max # of 1-4 neighbors
    26 = max # of special neighbors
  special bonds CPU = 0.005 seconds
  read_data CPU = 0.323 seconds
Finding SHAKE clusters ...
    1617 = # of size 2 clusters
    3633 = # of size 3 clusters
     747 = # of size 4 clusters
    4233 = # of frozen angles
  find clusters CPU = 0.003 seconds

CITE-CITE-CITE-CITE-CITE-CITE-CITE-CITE-CITE-CITE-CITE-CITE-CITE

Your simulation uses code contributions which should be cited:
- GPU package (short-range, long-range and three-body potentials):
The log file lists these citations in BibTeX format.

CITE-CITE-CITE-CITE-CITE-CITE-CITE-CITE-CITE-CITE-CITE-CITE-CITE

PPPM initialization ...
  using 12-bit tables for long-range coulomb (../kspace.cpp:340)
  G vector (1/distance) = 0.24883488
  grid = 25 32 32
  stencil order = 5
  estimated absolute RMS force accuracy = 0.035547797
  estimated relative force accuracy = 0.00010705113
  using single precision MKL FFT
  3d grid and FFT values/proc = 3978 1600

--------------------------------------------------------------------------
- Using acceleration for pppm:
-  with 3 proc(s) per device.
-  Horizontal vector operations: ENABLED
-  Shared memory system: No
--------------------------------------------------------------------------
Device 0: Tesla V100-SXM2-16GB, 80 CUs, 15/16 GB, 1.5 GHZ (Mixed Precision)
Device 1: Tesla V100-SXM2-16GB, 80 CUs, 1.5 GHZ (Mixed Precision)
Device 2: Tesla V100-SXM2-16GB, 80 CUs, 1.5 GHZ (Mixed Precision)
Device 3: Tesla V100-SXM2-16GB, 80 CUs, 1.5 GHZ (Mixed Precision)
Device 4: Tesla V100-SXM2-16GB, 80 CUs, 1.5 GHZ (Mixed Precision)
Device 5: Tesla V100-SXM2-16GB, 80 CUs, 1.5 GHZ (Mixed Precision)
Device 6: Tesla V100-SXM2-16GB, 80 CUs, 1.5 GHZ (Mixed Precision)
Device 7: Tesla V100-SXM2-16GB, 80 CUs, 1.5 GHZ (Mixed Precision)
--------------------------------------------------------------------------

Initializing Device and compiling on process 0...Done.
Initializing Devices 0-7 on core 0...Done.
Initializing Devices 0-7 on core 1...Done.
Initializing Devices 0-7 on core 2...Done.


--------------------------------------------------------------------------
- Using acceleration for lj/charmm/coul/long:
-  with 3 proc(s) per device.
-  Horizontal vector operations: ENABLED
-  Shared memory system: No
--------------------------------------------------------------------------
Device 0: Tesla V100-SXM2-16GB, 80 CUs, 15/16 GB, 1.5 GHZ (Mixed Precision)
Device 1: Tesla V100-SXM2-16GB, 80 CUs, 1.5 GHZ (Mixed Precision)
Device 2: Tesla V100-SXM2-16GB, 80 CUs, 1.5 GHZ (Mixed Precision)
Device 3: Tesla V100-SXM2-16GB, 80 CUs, 1.5 GHZ (Mixed Precision)
Device 4: Tesla V100-SXM2-16GB, 80 CUs, 1.5 GHZ (Mixed Precision)
Device 5: Tesla V100-SXM2-16GB, 80 CUs, 1.5 GHZ (Mixed Precision)
Device 6: Tesla V100-SXM2-16GB, 80 CUs, 1.5 GHZ (Mixed Precision)
Device 7: Tesla V100-SXM2-16GB, 80 CUs, 1.5 GHZ (Mixed Precision)
--------------------------------------------------------------------------

Initializing Device and compiling on process 0...Done.
Initializing Devices 0-7 on core 0...Done.
Initializing Devices 0-7 on core 1...Done.
Initializing Devices 0-7 on core 2...Done.

  generated 2278 of 2278 mixed pair_coeff terms from arithmetic mixing rule
Setting up Verlet run ...
  Unit style    : real
  Current step  : 0
  Time step     : 2
Per MPI rank memory allocation (min/avg/max) = 18.02 | 18.18 | 18.43 Mbytes
---------------- Step        0 ----- CPU =      0.0000 (sec) ----------------
TotEng   =    -25356.2687 KinEng   =     21444.8313 Temp     =       299.0397 
PotEng   =    -46801.1000 E_bond   =      2537.9940 E_angle  =     10921.3742 
E_dihed  =      5211.7865 E_impro  =       213.5116 E_vdwl   =     -2307.8635 
E_coul   =    207025.8394 E_long   =   -270403.7421 Press    =      -149.3321 
Volume   =    307995.0335 
---------------- Step       50 ----- CPU =      0.1761 (sec) ----------------
TotEng   =    -25330.0812 KinEng   =     21500.9991 Temp     =       299.8229 
PotEng   =    -46831.0804 E_bond   =      2471.7037 E_angle  =     10836.5108 
E_dihed  =      5239.6320 E_impro  =       227.1218 E_vdwl   =     -1993.2896 
E_coul   =    206797.6422 E_long   =   -270410.4013 Press    =       237.6574 
Volume   =    308031.6777 
---------------- Step      100 ----- CPU =      0.3487 (sec) ----------------
TotEng   =    -25290.7934 KinEng   =     21591.9061 Temp     =       301.0906 
PotEng   =    -46882.6995 E_bond   =      2567.9807 E_angle  =     10781.9583 
E_dihed  =      5198.7495 E_impro  =       216.7864 E_vdwl   =     -1902.6668 
E_coul   =    206659.4745 E_long   =   -270404.9820 Press    =         6.7250 
Volume   =    308134.2330 
---------------- Step      150 ----- CPU =      0.5156 (sec) ----------------
TotEng   =    -25258.1015 KinEng   =     21529.6887 Temp     =       300.2230 
PotEng   =    -46787.7902 E_bond   =      2556.3447 E_angle  =     10852.7813 
E_dihed  =      5265.2328 E_impro  =       203.0688 E_vdwl   =     -2066.1544 
E_coul   =    206797.4205 E_long   =   -270396.4838 Press    =       251.4771 
Volume   =    308515.2448 
---------------- Step      200 ----- CPU =      0.6854 (sec) ----------------
TotEng   =    -25078.9553 KinEng   =     21571.2411 Temp     =       300.8024 
PotEng   =    -46650.1964 E_bond   =      2488.6941 E_angle  =     11073.4450 
E_dihed  =      5221.7517 E_impro  =       232.8575 E_vdwl   =     -2167.6581 
E_coul   =    206902.8364 E_long   =   -270402.1232 Press    =        20.7087 
Volume   =    308997.5574 
---------------- Step      250 ----- CPU =      0.8544 (sec) ----------------
TotEng   =    -24944.4527 KinEng   =     21547.2798 Temp     =       300.4683 
PotEng   =    -46491.7325 E_bond   =      2542.5551 E_angle  =     11105.4998 
E_dihed  =      5239.6394 E_impro  =       212.3502 E_vdwl   =     -2168.8762 
E_coul   =    206989.2500 E_long   =   -270412.1508 Press    =      -169.9394 
Volume   =    309388.1302 
---------------- Step      300 ----- CPU =      1.0212 (sec) ----------------
TotEng   =    -25000.0969 KinEng   =     21499.5578 Temp     =       299.8028 
PotEng   =    -46499.6546 E_bond   =      2557.9004 E_angle  =     10921.9755 
E_dihed  =      5211.1115 E_impro  =       222.2125 E_vdwl   =     -2218.5140 
E_coul   =    207192.4895 E_long   =   -270386.8300 Press    =      -369.8702 
Volume   =    309663.7723 
---------------- Step      350 ----- CPU =      1.1876 (sec) ----------------
TotEng   =    -25129.5483 KinEng   =     21472.6986 Temp     =       299.4283 
PotEng   =    -46602.2469 E_bond   =      2580.5765 E_angle  =     10951.5743 
E_dihed  =      5250.9482 E_impro  =       212.5680 E_vdwl   =     -2166.2138 
E_coul   =    206968.8496 E_long   =   -270400.5497 Press    =      -335.5326 
Volume   =    309800.8731 
---------------- Step      400 ----- CPU =      1.3539 (sec) ----------------
TotEng   =    -25206.0716 KinEng   =     21425.8239 Temp     =       298.7746 
PotEng   =    -46631.8955 E_bond   =      2526.8296 E_angle  =     10966.3353 
E_dihed  =      5205.4128 E_impro  =       213.1406 E_vdwl   =     -2197.0470 
E_coul   =    207069.4559 E_long   =   -270416.0228 Press    =       183.8002 
Volume   =    309814.6373 
---------------- Step      450 ----- CPU =      1.5249 (sec) ----------------
TotEng   =    -25165.9283 KinEng   =     21533.8977 Temp     =       300.2817 
PotEng   =    -46699.8261 E_bond   =      2499.7002 E_angle  =     10966.7578 
E_dihed  =      5243.1490 E_impro  =       225.0266 E_vdwl   =     -2270.4415 
E_coul   =    207025.1551 E_long   =   -270389.1733 Press    =       136.3916 
Volume   =    309767.6489 
---------------- Step      500 ----- CPU =      1.6905 (sec) ----------------
TotEng   =    -25034.8580 KinEng   =     21597.2899 Temp     =       301.1656 
PotEng   =    -46632.1480 E_bond   =      2565.6554 E_angle  =     10930.0851 
E_dihed  =      5264.1606 E_impro  =       217.9514 E_vdwl   =     -2160.8016 
E_coul   =    206945.6812 E_long   =   -270394.8801 Press    =      -256.8619 
Volume   =    309746.3304 
---------------- Step      550 ----- CPU =      1.8567 (sec) ----------------
TotEng   =    -25011.0251 KinEng   =     21619.5015 Temp     =       301.4754 
PotEng   =    -46630.5267 E_bond   =      2519.2273 E_angle  =     10894.9785 
E_dihed  =      5209.2270 E_impro  =       226.0404 E_vdwl   =     -1935.5408 
E_coul   =    206849.0968 E_long   =   -270393.5558 Press    =       449.1330 
Volume   =    309723.1808 
---------------- Step      600 ----- CPU =      2.0182 (sec) ----------------
TotEng   =    -25056.9890 KinEng   =     21595.1564 Temp     =       301.1359 
PotEng   =    -46652.1454 E_bond   =      2566.8928 E_angle  =     10856.0198 
E_dihed  =      5248.2924 E_impro  =       211.5097 E_vdwl   =     -2104.1389 
E_coul   =    206965.3046 E_long   =   -270396.0258 Press    =       210.4622 
Volume   =    309901.6571 
Loop time of 2.0183 on 24 procs for 600 steps with 32000 atoms

Performance: 51.370 ns/day, 0.467 hours/ns, 297.280 timesteps/s
94.6% CPU use with 24 MPI tasks x 1 OpenMP threads

MPI task timing breakdown:
Section |  min time  |  avg time  |  max time  |%varavg|  %CPU | %total
-----------------------------------------------------------------------
Pair    | 0.22548    | 0.263      | 0.30818    |   4.7 |  95.2 | 13.03
Bond    | 0.1435     | 0.28205    | 0.45202    |  21.0 |  95.9 | 13.97
Kspace  | 0.58033    | 0.75725    | 0.90273    |  13.1 |  94.3 | 37.52
Neigh   | 0.033841   | 0.034915   | 0.035882   |   0.3 |  94.0 |  1.73
Comm    | 0.18758    | 0.21341    | 0.22862    |   3.5 |  94.2 | 10.57
Output  | 0.00095624 | 0.00097909 | 0.0012584  |   0.0 | 100.0 |  0.05
Modify  | 0.35507    | 0.41646    | 0.49389    |   6.2 |  94.1 | 20.63
Other   |            | 0.05022    |            |       |       |  2.49

Nlocal:        1333.33 ave        1380 max        1282 min
Histogram: 3 1 2 3 1 4 2 2 4 2
Nghost:        9810.71 ave        9963 max        9654 min
Histogram: 2 1 1 6 2 3 2 3 1 3
Neighs:              0 ave           0 max           0 min
Histogram: 24 0 0 0 0 0 0 0 0 0

Total # of neighbors = 0
Ave neighs/atom = 0
Ave special neighs/atom = 7.431875
Neighbor list builds = 66
Dangerous builds = 0


---------------------------------------------------------------------
      Device Time Info (average): 
---------------------------------------------------------------------
Data Transfer:   0.0157 s.
Neighbor copy:   0.0294 s.
Neighbor build:  0.1150 s.
Force calc:      0.3565 s.
Device Overhead: 0.1865 s.
Average split:   1.0000.
Lanes / atom:    8.
Vector width:    32.
Max Mem / Proc:  6.97 MB.
CPU Neighbor:    0.0243 s.
CPU Cast/Pack:   0.0453 s.
CPU Driver_Time: 0.0104 s.
CPU Idle_Time:   0.0017 s.
---------------------------------------------------------------------



---------------------------------------------------------------------
    Device Time Info (average) for kspace: 
---------------------------------------------------------------------
Data Out:        0.0080 s.
Data In:         0.0275 s.
Kernel (map):    0.2194 s.
Kernel (rho):    0.0666 s.
Force interp:    0.1118 s.
Total rho:       0.2941 s.
Total interp:    0.1393 s.
Force copy:      0.0084 s.
Total:           0.4417 s.
CPU Poisson:     0.4907 s.
CPU Data Cast:   0.0028 s.
CPU Idle Time:   0.2437 s.
Max Mem / Proc:  0.47 MB.
---------------------------------------------------------------------

Total wall time: 0:00:16
Intel(R) VTune(TM) Profiler 2022.2.0 collection completed successfully. Use the "aps --report /home/ubuntu/lammps/bench/aps_result_20220420" command to generate textual and HTML reports for the profiling session.
