LAMMPS (7 Jan 2022)
  using 1 OpenMP thread(s) per MPI task
Reading data file ...
  orthogonal box = (-27.5 -38.5 -36.3646) to (27.5 38.5 36.3615)
  3 by 4 by 4 MPI processor grid
  reading atoms ...
  32000 atoms
  reading velocities ...
  32000 velocities
  scanning bonds ...
  4 = max bonds/atom
  scanning angles ...
  8 = max angles/atom
  scanning dihedrals ...
  18 = max dihedrals/atom
  scanning impropers ...
  2 = max impropers/atom
  reading bonds ...
  27723 bonds
  reading angles ...
  40467 angles
  reading dihedrals ...
  56829 dihedrals
  reading impropers ...
  1034 impropers
Finding 1-2 1-3 1-4 neighbors ...
  special bond factors lj:    0        0        0       
  special bond factors coul:  0        0        0       
     4 = max # of 1-2 neighbors
    12 = max # of 1-3 neighbors
    24 = max # of 1-4 neighbors
    26 = max # of special neighbors
  special bonds CPU = 0.008 seconds
  read_data CPU = 0.416 seconds
Replicating atoms ...
  orthogonal box = (-27.5 -38.5 -36.3646) to (192.5 269.5 254.5398)
  3 by 4 by 4 MPI processor grid
  2048000 atoms
  1774272 bonds
  2589888 angles
  3637056 dihedrals
  66176 impropers
Finding 1-2 1-3 1-4 neighbors ...
  special bond factors lj:    0        0        0       
  special bond factors coul:  0        0        0       
     4 = max # of 1-2 neighbors
    12 = max # of 1-3 neighbors
    24 = max # of 1-4 neighbors
    26 = max # of special neighbors
  special bonds CPU = 0.095 seconds
  replicate CPU = 0.227 seconds
Finding SHAKE clusters ...
  103488 = # of size 2 clusters
  232512 = # of size 3 clusters
   47808 = # of size 4 clusters
  270912 = # of frozen angles
  find clusters CPU = 0.050 seconds

CITE-CITE-CITE-CITE-CITE-CITE-CITE-CITE-CITE-CITE-CITE-CITE-CITE

Your simulation uses code contributions which should be cited:
- GPU package (short-range, long-range and three-body potentials):
The log file lists these citations in BibTeX format.

CITE-CITE-CITE-CITE-CITE-CITE-CITE-CITE-CITE-CITE-CITE-CITE-CITE

PPPM initialization ...
  using 12-bit tables for long-range coulomb (../kspace.cpp:340)
  G vector (1/distance) = 0.32764763
  grid = 270 360 360
  stencil order = 5
  estimated absolute RMS force accuracy = 0.0003737576
  estimated relative force accuracy = 1.1255599e-06
  using single precision MKL FFT
  3d grid and FFT values/proc = 912673 777600

--------------------------------------------------------------------------
- Using acceleration for pppm:
-  with 12 proc(s) per device.
-  Horizontal vector operations: ENABLED
-  Shared memory system: No
--------------------------------------------------------------------------
Device 0: Tesla V100-SXM2-16GB, 80 CUs, 12/16 GB, 1.5 GHZ (Mixed Precision)
Device 1: Tesla V100-SXM2-16GB, 80 CUs, 1.5 GHZ (Mixed Precision)
Device 2: Tesla V100-SXM2-16GB, 80 CUs, 1.5 GHZ (Mixed Precision)
Device 3: Tesla V100-SXM2-16GB, 80 CUs, 1.5 GHZ (Mixed Precision)
--------------------------------------------------------------------------

Initializing Device and compiling on process 0...Done.
Initializing Devices 0-3 on core 0...Done.
Initializing Devices 0-3 on core 1...Done.
Initializing Devices 0-3 on core 2...Done.
Initializing Devices 0-3 on core 3...Done.
Initializing Devices 0-3 on core 4...Done.
Initializing Devices 0-3 on core 5...Done.
Initializing Devices 0-3 on core 6...Done.
Initializing Devices 0-3 on core 7...Done.
Initializing Devices 0-3 on core 8...Done.
Initializing Devices 0-3 on core 9...Done.
Initializing Devices 0-3 on core 10...Done.
Initializing Devices 0-3 on core 11...Done.


--------------------------------------------------------------------------
- Using acceleration for lj/charmm/coul/long:
-  with 12 proc(s) per device.
-  Horizontal vector operations: ENABLED
-  Shared memory system: No
--------------------------------------------------------------------------
Device 0: Tesla V100-SXM2-16GB, 80 CUs, 10/16 GB, 1.5 GHZ (Mixed Precision)
Device 1: Tesla V100-SXM2-16GB, 80 CUs, 1.5 GHZ (Mixed Precision)
Device 2: Tesla V100-SXM2-16GB, 80 CUs, 1.5 GHZ (Mixed Precision)
Device 3: Tesla V100-SXM2-16GB, 80 CUs, 1.5 GHZ (Mixed Precision)
--------------------------------------------------------------------------

Initializing Device and compiling on process 0...Done.
Initializing Devices 0-3 on core 0...Done.
Initializing Devices 0-3 on core 1...Done.
Initializing Devices 0-3 on core 2...Done.
Initializing Devices 0-3 on core 3...Done.
Initializing Devices 0-3 on core 4...Done.
Initializing Devices 0-3 on core 5...Done.
Initializing Devices 0-3 on core 6...Done.
Initializing Devices 0-3 on core 7...Done.
Initializing Devices 0-3 on core 8...Done.
Initializing Devices 0-3 on core 9...Done.
Initializing Devices 0-3 on core 10...Done.
Initializing Devices 0-3 on core 11...Done.

  generated 2278 of 2278 mixed pair_coeff terms from arithmetic mixing rule
Setting up Verlet run ...
  Unit style    : real
  Current step  : 0
  Time step     : 2
Per MPI rank memory allocation (min/avg/max) = 198.4 | 200.2 | 201.9 Mbytes
---------------- Step        0 ----- CPU =      0.0000 (sec) ----------------
TotEng   =  -1622982.4584 KinEng   =   1372469.2022 Temp     =       299.0274 
PotEng   =  -2995451.6606 E_bond   =    162431.6167 E_angle  =    698967.9493 
E_dihed  =    333554.3360 E_impro  =     13664.7415 E_vdwl   =   -147703.3196 
E_coul   =  18695669.3455 E_long   = -22752036.3300 Press    =      -152.9626 
Volume   =  19711682.1440 
---------------- Step       50 ----- CPU =     30.3755 (sec) ----------------
TotEng   =  -1621304.8151 KinEng   =   1376085.2237 Temp     =       299.8153 
PotEng   =  -2997390.0388 E_bond   =    158186.8877 E_angle  =    693554.3400 
E_dihed  =    335327.0534 E_impro  =     14537.2160 E_vdwl   =   -127520.4867 
E_coul   =  18681566.6895 E_long   = -22753041.7386 Press    =       234.7850 
Volume   =  19713991.3110 
---------------- Step      100 ----- CPU =     59.9080 (sec) ----------------
TotEng   =  -1618408.7270 KinEng   =   1381880.6285 Temp     =       301.0780 
PotEng   =  -3000289.3555 E_bond   =    164344.7039 E_angle  =    690028.1559 
E_dihed  =    332709.1055 E_impro  =     13874.3627 E_vdwl   =   -121621.9760 
E_coul   =  18673021.0758 E_long   = -22752644.7833 Press    =        12.1850 
Volume   =  19720481.8476 
Loop time of 59.9081 on 48 procs for 100 steps with 2048000 atoms

Performance: 0.288 ns/day, 83.206 hours/ns, 1.669 timesteps/s
92.4% CPU use with 48 MPI tasks x 1 OpenMP threads

MPI task timing breakdown:
Section |  min time  |  avg time  |  max time  |%varavg| %total
---------------------------------------------------------------
Pair    | 5.3513     | 5.6809     | 5.8835     |   6.1 |  9.48
Bond    | 1.5402     | 1.6052     | 1.7119     |   3.3 |  2.68
Kspace  | 35.262     | 35.522     | 35.885     |   2.5 | 59.29
Neigh   | 0.3248     | 0.32768    | 0.3297     |   0.2 |  0.55
Comm    | 1.3563     | 1.9918     | 2.5293     |  28.4 |  3.32
Output  | 0.00055037 | 0.00057065 | 0.00063409 |   0.0 |  0.00
Modify  | 11.614     | 12.502     | 13.577     |  20.1 | 20.87
Other   |            | 2.278      |            |       |  3.80

Nlocal:        42666.7 ave       42689 max       42636 min
Histogram: 16 0 0 0 0 0 0 16 0 16
Nghost:        55813.7 ave       55831 max       55804 min
Histogram: 32 0 0 0 0 0 0 0 0 16
Neighs:              0 ave           0 max           0 min
Histogram: 48 0 0 0 0 0 0 0 0 0

Total # of neighbors = 0
Ave neighs/atom = 0
Ave special neighs/atom = 7.431875
Neighbor list builds = 11
Dangerous builds = 0


---------------------------------------------------------------------
      Device Time Info (average): 
---------------------------------------------------------------------
Data Transfer:   0.0728 s.
Neighbor copy:   0.2761 s.
Neighbor build:  0.4547 s.
Force calc:      0.3669 s.
Device Overhead: 0.1302 s.
Average split:   1.0000.
Lanes / atom:    8.
Vector width:    32.
Max Mem / Proc:  198.74 MB.
CPU Neighbor:    0.0758 s.
CPU Cast/Pack:   0.1834 s.
CPU Driver_Time: 0.0029 s.
CPU Idle_Time:   0.0024 s.
---------------------------------------------------------------------



---------------------------------------------------------------------
    Device Time Info (average) for kspace: 
---------------------------------------------------------------------
Data Out:        0.2125 s.
Data In:         5.4243 s.
Kernel (map):    0.3045 s.
Kernel (rho):    0.0501 s.
Force interp:    0.0440 s.
Total rho:       0.5671 s.
Total interp:    5.4683 s.
Force copy:      0.0483 s.
Total:           6.0837 s.
CPU Poisson:     35.3076 s.
CPU Data Cast:   0.0265 s.
CPU Idle Time:   0.5021 s.
Max Mem / Proc:  147.51 MB.
---------------------------------------------------------------------

Total wall time: 0:02:05
Intel(R) VTune(TM) Profiler 2022.2.0 collection completed successfully. Use the "aps --report /home/ubuntu/lammps/bench/aps_result_20220531" command to generate textual and HTML reports for the profiling session.
