LAMMPS (7 Jan 2022)
  using 1 OpenMP thread(s) per MPI task
Reading data file ...
  orthogonal box = (-27.5 -38.5 -36.3646) to (27.5 38.5 36.3615)
  2 by 4 by 2 MPI processor grid
  reading atoms ...
  32000 atoms
  reading velocities ...
  32000 velocities
  scanning bonds ...
  4 = max bonds/atom
  scanning angles ...
  8 = max angles/atom
  scanning dihedrals ...
  18 = max dihedrals/atom
  scanning impropers ...
  2 = max impropers/atom
  reading bonds ...
  27723 bonds
  reading angles ...
  40467 angles
  reading dihedrals ...
  56829 dihedrals
  reading impropers ...
  1034 impropers
Finding 1-2 1-3 1-4 neighbors ...
  special bond factors lj:    0        0        0       
  special bond factors coul:  0        0        0       
     4 = max # of 1-2 neighbors
    12 = max # of 1-3 neighbors
    24 = max # of 1-4 neighbors
    26 = max # of special neighbors
  special bonds CPU = 0.006 seconds
  read_data CPU = 0.395 seconds
Replicating atoms ...
  orthogonal box = (-27.5 -38.5 -36.3646) to (192.5 269.5 254.5398)
  2 by 4 by 2 MPI processor grid
  2048000 atoms
  1774272 bonds
  2589888 angles
  3637056 dihedrals
  66176 impropers
Finding 1-2 1-3 1-4 neighbors ...
  special bond factors lj:    0        0        0       
  special bond factors coul:  0        0        0       
     4 = max # of 1-2 neighbors
    12 = max # of 1-3 neighbors
    24 = max # of 1-4 neighbors
    26 = max # of special neighbors
  special bonds CPU = 0.222 seconds
  replicate CPU = 0.381 seconds
Finding SHAKE clusters ...
  103488 = # of size 2 clusters
  232512 = # of size 3 clusters
   47808 = # of size 4 clusters
  270912 = # of frozen angles
  find clusters CPU = 0.084 seconds

CITE-CITE-CITE-CITE-CITE-CITE-CITE-CITE-CITE-CITE-CITE-CITE-CITE

Your simulation uses code contributions which should be cited:
- GPU package (short-range, long-range and three-body potentials):
The log file lists these citations in BibTeX format.

CITE-CITE-CITE-CITE-CITE-CITE-CITE-CITE-CITE-CITE-CITE-CITE-CITE

PPPM initialization ...
  using 12-bit tables for long-range coulomb (../kspace.cpp:340)
  G vector (1/distance) = 0.24521748
  grid = 96 125 120
  stencil order = 5
  estimated absolute RMS force accuracy = 0.042505564
  estimated relative force accuracy = 0.00012800424
  using single precision MKL FFT
  3d grid and FFT values/proc = 127465 96000

--------------------------------------------------------------------------
- Using acceleration for pppm:
-  with 16 proc(s) per device.
-  Horizontal vector operations: ENABLED
-  Shared memory system: No
--------------------------------------------------------------------------
Device 0: Tesla V100-SXM2-16GB, 80 CUs, 11/16 GB, 1.5 GHZ (Single Precision)
--------------------------------------------------------------------------

Initializing Device and compiling on process 0...Done.
Initializing Device 0 on core 0...Done.
Initializing Device 0 on core 1...Done.
Initializing Device 0 on core 2...Done.
Initializing Device 0 on core 3...Done.
Initializing Device 0 on core 4...Done.
Initializing Device 0 on core 5...Done.
Initializing Device 0 on core 6...Done.
Initializing Device 0 on core 7...Done.
Initializing Device 0 on core 8...Done.
Initializing Device 0 on core 9...Done.
Initializing Device 0 on core 10...Done.
Initializing Device 0 on core 11...Done.
Initializing Device 0 on core 12...Done.
Initializing Device 0 on core 13...Done.
Initializing Device 0 on core 14...Done.
Initializing Device 0 on core 15...Done.


--------------------------------------------------------------------------
- Using acceleration for lj/charmm/coul/long:
-  with 16 proc(s) per device.
-  Horizontal vector operations: ENABLED
-  Shared memory system: No
--------------------------------------------------------------------------
Device 0: Tesla V100-SXM2-16GB, 80 CUs, 11/16 GB, 1.5 GHZ (Single Precision)
--------------------------------------------------------------------------

Initializing Device and compiling on process 0...Done.
Initializing Device 0 on core 0...Done.
Initializing Device 0 on core 1...Done.
Initializing Device 0 on core 2...Done.
Initializing Device 0 on core 3...Done.
Initializing Device 0 on core 4...Done.
Initializing Device 0 on core 5...Done.
Initializing Device 0 on core 6...Done.
Initializing Device 0 on core 7...Done.
Initializing Device 0 on core 8...Done.
Initializing Device 0 on core 9...Done.
Initializing Device 0 on core 10...Done.
Initializing Device 0 on core 11...Done.
Initializing Device 0 on core 12...Done.
Initializing Device 0 on core 13...Done.
Initializing Device 0 on core 14...Done.
Initializing Device 0 on core 15...Done.

  generated 2278 of 2278 mixed pair_coeff terms from arithmetic mixing rule
Setting up Verlet run ...
  Unit style    : real
  Current step  : 0
  Time step     : 2
Per MPI rank memory allocation (min/avg/max) = 291.5 | 291.7 | 292 Mbytes
---------------- Step        0 ----- CPU =      0.0000 (sec) ----------------
TotEng   =  -1622757.0121 KinEng   =   1372469.2022 Temp     =       299.0274 
PotEng   =  -2995226.2143 E_bond   =    162431.6167 E_angle  =    698967.9493 
E_dihed  =    333554.3360 E_impro  =     13664.7415 E_vdwl   =   -147703.3145 
E_coul   =  12998901.2768 E_long   = -17055042.8201 Press    =      -148.6932 
Volume   =  19711682.1440 
---------------- Step       50 ----- CPU =      7.9977 (sec) ----------------
TotEng   =  -1621040.3687 KinEng   =   1376072.6073 Temp     =       299.8125 
PotEng   =  -2997112.9760 E_bond   =    158195.5665 E_angle  =    693548.5016 
E_dihed  =    335344.2046 E_impro  =     14535.9725 E_vdwl   =   -127551.9476 
E_coul   =  12984287.6601 E_long   = -17055472.9336 Press    =       238.7549 
Volume   =  19714039.4508 
---------------- Step      100 ----- CPU =     16.4678 (sec) ----------------
TotEng   =  -1618501.3595 KinEng   =   1381843.8208 Temp     =       301.0699 
PotEng   =  -3000345.1803 E_bond   =    164361.2566 E_angle  =    690056.9820 
E_dihed  =    332707.9710 E_impro  =     13870.0745 E_vdwl   =   -121504.7876 
E_coul   =  12975295.1319 E_long   = -17055131.8088 Press    =        11.4632 
Volume   =  19720645.0667 
Loop time of 16.4679 on 16 procs for 100 steps with 2048000 atoms

Performance: 1.049 ns/day, 22.872 hours/ns, 6.072 timesteps/s
97.7% CPU use with 16 MPI tasks x 1 OpenMP threads

MPI task timing breakdown:
Section |  min time  |  avg time  |  max time  |%varavg| %total
---------------------------------------------------------------
Pair    | 0.78194    | 0.82503    | 0.86728    |   3.1 |  5.01
Bond    | 4.5337     | 4.5669     | 4.6221     |   1.2 | 27.73
Kspace  | 4.0153     | 4.0659     | 4.0948     |   1.2 | 24.69
Neigh   | 0.91587    | 0.92657    | 0.93273    |   0.5 |  5.63
Comm    | 0.73882    | 0.78626    | 0.83113    |   3.9 |  4.77
Output  | 0.0011037  | 0.0011499  | 0.0012099  |   0.1 |  0.01
Modify  | 4.8704     | 4.9984     | 5.1466     |   3.8 | 30.35
Other   |            | 0.2977     |            |       |  1.81

Nlocal:         128000 ave      128000 max      128000 min
Histogram: 16 0 0 0 0 0 0 0 0 0
Nghost:         109944 ave      109945 max      109942 min
Histogram: 4 0 0 4 0 0 0 0 0 8
Neighs:              0 ave           0 max           0 min
Histogram: 16 0 0 0 0 0 0 0 0 0

Total # of neighbors = 0
Ave neighs/atom = 0
Ave special neighs/atom = 7.431875
Neighbor list builds = 11
Dangerous builds = 0


---------------------------------------------------------------------
      Device Time Info (average): 
---------------------------------------------------------------------
Data Transfer:   0.0217 s.
Neighbor copy:   0.2920 s.
Neighbor build:  2.7522 s.
Force calc:      1.6785 s.
Device Overhead: 0.1843 s.
Average split:   1.0000.
Lanes / atom:    8.
Vector width:    32.
Max Mem / Proc:  587.15 MB.
CPU Neighbor:    0.0868 s.
CPU Cast/Pack:   0.2631 s.
CPU Driver_Time: 0.0028 s.
CPU Idle_Time:   0.0186 s.
---------------------------------------------------------------------



---------------------------------------------------------------------
    Device Time Info (average) for kspace: 
---------------------------------------------------------------------
Data Out:        0.0112 s.
Data In:         0.1367 s.
Kernel (map):    0.3837 s.
Kernel (rho):    0.0341 s.
Force interp:    0.2305 s.
Total rho:       0.4291 s.
Total interp:    0.3671 s.
Force copy:      0.0230 s.
Total:           0.8192 s.
CPU Poisson:     1.8796 s.
CPU Data Cast:   0.0591 s.
CPU Idle Time:   2.3132 s.
Max Mem / Proc:  24.30 MB.
---------------------------------------------------------------------

Total wall time: 0:00:38
Intel(R) VTune(TM) Profiler 2022.2.0 collection completed successfully. Use the "aps --report /home/ubuntu/lammps/bench/aps_result_20220609" command to generate textual and HTML reports for the profiling session.
