LAMMPS (7 Jan 2022)
  using 1 OpenMP thread(s) per MPI task
Reading data file ...
  orthogonal box = (-27.5 -38.5 -36.3646) to (27.5 38.5 36.3615)
  2 by 4 by 3 MPI processor grid
  reading atoms ...
  32000 atoms
  reading velocities ...
  32000 velocities
  scanning bonds ...
  4 = max bonds/atom
  scanning angles ...
  8 = max angles/atom
  scanning dihedrals ...
  18 = max dihedrals/atom
  scanning impropers ...
  2 = max impropers/atom
  reading bonds ...
  27723 bonds
  reading angles ...
  40467 angles
  reading dihedrals ...
  56829 dihedrals
  reading impropers ...
  1034 impropers
Finding 1-2 1-3 1-4 neighbors ...
  special bond factors lj:    0        0        0       
  special bond factors coul:  0        0        0       
     4 = max # of 1-2 neighbors
    12 = max # of 1-3 neighbors
    24 = max # of 1-4 neighbors
    26 = max # of special neighbors
  special bonds CPU = 0.006 seconds
  read_data CPU = 0.400 seconds
Finding SHAKE clusters ...
    1617 = # of size 2 clusters
    3633 = # of size 3 clusters
     747 = # of size 4 clusters
    4233 = # of frozen angles
  find clusters CPU = 0.003 seconds

CITE-CITE-CITE-CITE-CITE-CITE-CITE-CITE-CITE-CITE-CITE-CITE-CITE

Your simulation uses code contributions which should be cited:
- GPU package (short-range, long-range and three-body potentials):
The log file lists these citations in BibTeX format.

CITE-CITE-CITE-CITE-CITE-CITE-CITE-CITE-CITE-CITE-CITE-CITE-CITE

PPPM initialization ...
  using 12-bit tables for long-range coulomb (../kspace.cpp:340)
  G vector (1/distance) = 0.32967033
  grid = 72 90 90
  stencil order = 5
  estimated absolute RMS force accuracy = 0.00033110871
  estimated relative force accuracy = 9.9712404e-07
  using single precision MKL FFT
  3d grid and FFT values/proc = 47730 25920

--------------------------------------------------------------------------
- Using acceleration for pppm:
-  with 3 proc(s) per device.
-  Horizontal vector operations: ENABLED
-  Shared memory system: No
--------------------------------------------------------------------------
Device 0: Tesla V100-SXM2-16GB, 80 CUs, 15/16 GB, 1.5 GHZ (Mixed Precision)
Device 1: Tesla V100-SXM2-16GB, 80 CUs, 1.5 GHZ (Mixed Precision)
Device 2: Tesla V100-SXM2-16GB, 80 CUs, 1.5 GHZ (Mixed Precision)
Device 3: Tesla V100-SXM2-16GB, 80 CUs, 1.5 GHZ (Mixed Precision)
Device 4: Tesla V100-SXM2-16GB, 80 CUs, 1.5 GHZ (Mixed Precision)
Device 5: Tesla V100-SXM2-16GB, 80 CUs, 1.5 GHZ (Mixed Precision)
Device 6: Tesla V100-SXM2-16GB, 80 CUs, 1.5 GHZ (Mixed Precision)
Device 7: Tesla V100-SXM2-16GB, 80 CUs, 1.5 GHZ (Mixed Precision)
--------------------------------------------------------------------------

Initializing Device and compiling on process 0...Done.
Initializing Devices 0-7 on core 0...Done.
Initializing Devices 0-7 on core 1...Done.
Initializing Devices 0-7 on core 2...Done.


--------------------------------------------------------------------------
- Using acceleration for lj/charmm/coul/long:
-  with 3 proc(s) per device.
-  Horizontal vector operations: ENABLED
-  Shared memory system: No
--------------------------------------------------------------------------
Device 0: Tesla V100-SXM2-16GB, 80 CUs, 15/16 GB, 1.5 GHZ (Mixed Precision)
Device 1: Tesla V100-SXM2-16GB, 80 CUs, 1.5 GHZ (Mixed Precision)
Device 2: Tesla V100-SXM2-16GB, 80 CUs, 1.5 GHZ (Mixed Precision)
Device 3: Tesla V100-SXM2-16GB, 80 CUs, 1.5 GHZ (Mixed Precision)
Device 4: Tesla V100-SXM2-16GB, 80 CUs, 1.5 GHZ (Mixed Precision)
Device 5: Tesla V100-SXM2-16GB, 80 CUs, 1.5 GHZ (Mixed Precision)
Device 6: Tesla V100-SXM2-16GB, 80 CUs, 1.5 GHZ (Mixed Precision)
Device 7: Tesla V100-SXM2-16GB, 80 CUs, 1.5 GHZ (Mixed Precision)
--------------------------------------------------------------------------

Initializing Device and compiling on process 0...Done.
Initializing Devices 0-7 on core 0...Done.
Initializing Devices 0-7 on core 1...Done.
Initializing Devices 0-7 on core 2...Done.

  generated 2278 of 2278 mixed pair_coeff terms from arithmetic mixing rule
Setting up Verlet run ...
  Unit style    : real
  Current step  : 0
  Time step     : 2
Per MPI rank memory allocation (min/avg/max) = 20.52 | 20.71 | 21.01 Mbytes
---------------- Step        0 ----- CPU =      0.0000 (sec) ----------------
TotEng   =    -25359.0978 KinEng   =     21444.8313 Temp     =       299.0397 
PotEng   =    -46803.9290 E_bond   =      2537.9940 E_angle  =     10921.3742 
E_dihed  =      5211.7865 E_impro  =       213.5116 E_vdwl   =     -2307.8635 
E_coul   =    294294.0666 E_long   =   -357674.7984 Press    =      -152.9661 
Volume   =    307995.0335 
---------------- Step       50 ----- CPU =      0.6067 (sec) ----------------
TotEng   =    -25333.6621 KinEng   =     21500.8941 Temp     =       299.8214 
PotEng   =    -46834.5563 E_bond   =      2471.6326 E_angle  =     10836.6403 
E_dihed  =      5239.4606 E_impro  =       227.1404 E_vdwl   =     -1992.5560 
E_coul   =    294073.9432 E_long   =   -357690.8174 Press    =       234.6845 
Volume   =    308031.1064 
---------------- Step      100 ----- CPU =      1.1621 (sec) ----------------
TotEng   =    -25290.0434 KinEng   =     21590.6703 Temp     =       301.0733 
PotEng   =    -46880.7137 E_bond   =      2567.7681 E_angle  =     10781.2384 
E_dihed  =      5198.4919 E_impro  =       216.7766 E_vdwl   =     -1900.4321 
E_coul   =    293940.1139 E_long   =   -357684.6704 Press    =        11.9368 
Volume   =    308132.4392 
---------------- Step      150 ----- CPU =      1.7233 (sec) ----------------
TotEng   =    -25258.0497 KinEng   =     21543.4770 Temp     =       300.4153 
PotEng   =    -46801.5267 E_bond   =      2555.8886 E_angle  =     10855.4659 
E_dihed  =      5263.9554 E_impro  =       203.1505 E_vdwl   =     -2069.5099 
E_coul   =    294057.2411 E_long   =   -357667.7184 Press    =       242.0810 
Volume   =    308516.0641 
---------------- Step      200 ----- CPU =      2.2725 (sec) ----------------
TotEng   =    -25058.6829 KinEng   =     21486.0240 Temp     =       299.6141 
PotEng   =    -46544.7069 E_bond   =      2492.2805 E_angle  =     11072.5754 
E_dihed  =      5224.5026 E_impro  =       232.2279 E_vdwl   =     -2111.1008 
E_coul   =    294236.2092 E_long   =   -357691.4019 Press    =       108.8124 
Volume   =    308993.6812 
---------------- Step      250 ----- CPU =      2.8257 (sec) ----------------
TotEng   =    -24886.3443 KinEng   =     21595.5406 Temp     =       301.1413 
PotEng   =    -46481.8848 E_bond   =      2554.1531 E_angle  =     11113.6036 
E_dihed  =      5250.8247 E_impro  =       221.9950 E_vdwl   =     -2169.4230 
E_coul   =    294228.6245 E_long   =   -357681.6627 Press    =      -160.7202 
Volume   =    309421.6916 
---------------- Step      300 ----- CPU =      3.3864 (sec) ----------------
TotEng   =    -24886.8496 KinEng   =     21596.6081 Temp     =       301.1561 
PotEng   =    -46483.4577 E_bond   =      2569.3060 E_angle  =     10908.5932 
E_dihed  =      5218.9127 E_impro  =       226.4710 E_vdwl   =     -2171.7140 
E_coul   =    294422.1280 E_long   =   -357657.1547 Press    =      -372.3057 
Volume   =    309818.0706 
---------------- Step      350 ----- CPU =      3.9454 (sec) ----------------
TotEng   =    -25095.0892 KinEng   =     21599.1414 Temp     =       301.1915 
PotEng   =    -46694.2307 E_bond   =      2585.6621 E_angle  =     10951.5696 
E_dihed  =      5198.6338 E_impro  =       208.9845 E_vdwl   =     -2119.9285 
E_coul   =    294159.7629 E_long   =   -357678.9150 Press    =      -370.0854 
Volume   =    310108.8887 
---------------- Step      400 ----- CPU =      4.4972 (sec) ----------------
TotEng   =    -25378.5131 KinEng   =     21410.7289 Temp     =       298.5641 
PotEng   =    -46789.2420 E_bond   =      2525.9576 E_angle  =     10961.7791 
E_dihed  =      5178.1544 E_impro  =       221.3084 E_vdwl   =     -2097.5676 
E_coul   =    294095.1474 E_long   =   -357674.0213 Press    =       213.9944 
Volume   =    310213.2920 
---------------- Step      450 ----- CPU =      5.0457 (sec) ----------------
TotEng   =    -25466.3214 KinEng   =     21348.8693 Temp     =       297.7015 
PotEng   =    -46815.1906 E_bond   =      2521.0541 E_angle  =     10823.7666 
E_dihed  =      5293.3249 E_impro  =       218.9327 E_vdwl   =     -2236.7545 
E_coul   =    294245.0213 E_long   =   -357680.5357 Press    =       126.3601 
Volume   =    310190.3920 
---------------- Step      500 ----- CPU =      5.6036 (sec) ----------------
TotEng   =    -25123.1593 KinEng   =     21445.3799 Temp     =       299.0473 
PotEng   =    -46568.5392 E_bond   =      2599.1261 E_angle  =     10971.7420 
E_dihed  =      5247.2015 E_impro  =       219.6076 E_vdwl   =     -2161.8602 
E_coul   =    294233.1387 E_long   =   -357677.4949 Press    =      -347.7463 
Volume   =    310134.2500 
---------------- Step      550 ----- CPU =      6.1510 (sec) ----------------
TotEng   =    -24751.1513 KinEng   =     21867.3861 Temp     =       304.9320 
PotEng   =    -46618.5374 E_bond   =      2528.3421 E_angle  =     10965.0931 
E_dihed  =      5249.1547 E_impro  =       228.9585 E_vdwl   =     -2055.9591 
E_coul   =    294127.6389 E_long   =   -357661.7655 Press    =       345.6117 
Volume   =    310005.0859 
---------------- Step      600 ----- CPU =      6.7064 (sec) ----------------
TotEng   =    -24705.2429 KinEng   =     21750.0584 Temp     =       303.2959 
PotEng   =    -46455.3013 E_bond   =      2581.6799 E_angle  =     11052.9178 
E_dihed  =      5231.5178 E_impro  =       219.1667 E_vdwl   =     -2136.7773 
E_coul   =    294275.7131 E_long   =   -357679.5193 Press    =        34.1861 
Volume   =    309979.7248 
Loop time of 6.70646 on 24 procs for 600 steps with 32000 atoms

Performance: 15.460 ns/day, 1.552 hours/ns, 89.466 timesteps/s
97.3% CPU use with 24 MPI tasks x 1 OpenMP threads

MPI task timing breakdown:
Section |  min time  |  avg time  |  max time  |%varavg| %total
---------------------------------------------------------------
Pair    | 0.56726    | 0.6216     | 0.67067    |   3.5 |  9.27
Bond    | 0.16332    | 0.33718    | 0.54644    |  23.7 |  5.03
Kspace  | 2.5847     | 2.8068     | 2.9844     |   8.3 | 41.85
Neigh   | 0.040292   | 0.04168    | 0.042897   |   0.3 |  0.62
Comm    | 0.25109    | 0.34287    | 0.52502    |  16.5 |  5.11
Output  | 0.0010707  | 0.0010919  | 0.001381   |   0.2 |  0.02
Modify  | 1.949      | 2.3716     | 2.6009     |  15.1 | 35.36
Other   |            | 0.1836     |            |       |  2.74

Nlocal:        1333.33 ave        1407 max        1278 min
Histogram: 2 4 2 1 6 5 0 3 0 1
Nghost:        9794.83 ave        9987 max        9663 min
Histogram: 5 2 4 2 3 0 2 2 2 2
Neighs:              0 ave           0 max           0 min
Histogram: 24 0 0 0 0 0 0 0 0 0

Total # of neighbors = 0
Ave neighs/atom = 0
Ave special neighs/atom = 7.431875
Neighbor list builds = 65
Dangerous builds = 0


---------------------------------------------------------------------
      Device Time Info (average): 
---------------------------------------------------------------------
Data Transfer:   0.0200 s.
Neighbor copy:   0.0353 s.
Neighbor build:  0.1349 s.
Force calc:      0.3641 s.
Device Overhead: 0.2162 s.
Average split:   1.0000.
Lanes / atom:    8.
Vector width:    32.
Max Mem / Proc:  7.06 MB.
CPU Neighbor:    0.0298 s.
CPU Cast/Pack:   0.0554 s.
CPU Driver_Time: 0.0164 s.
CPU Idle_Time:   0.0042 s.
---------------------------------------------------------------------



---------------------------------------------------------------------
    Device Time Info (average) for kspace: 
---------------------------------------------------------------------
Data Out:        0.0240 s.
Data In:         0.3227 s.
Kernel (map):    0.2229 s.
Kernel (rho):    0.0432 s.
Force interp:    0.1586 s.
Total rho:       0.2901 s.
Total interp:    0.4813 s.
Force copy:      0.0174 s.
Total:           0.7889 s.
CPU Poisson:     2.5170 s.
CPU Data Cast:   0.0027 s.
CPU Idle Time:   0.2265 s.
Max Mem / Proc:  6.29 MB.
---------------------------------------------------------------------

Total wall time: 0:00:37
Intel(R) VTune(TM) Profiler 2022.2.0 collection completed successfully. Use the "aps --report /home/ubuntu/lammps/bench/aps_result_20220531" command to generate textual and HTML reports for the profiling session.
