LAMMPS (7 Jan 2022)
  using 1 OpenMP thread(s) per MPI task
Reading data file ...
  orthogonal box = (-27.5 -38.5 -36.3646) to (27.5 38.5 36.3615)
  2 by 3 by 3 MPI processor grid
  reading atoms ...
  32000 atoms
  reading velocities ...
  32000 velocities
  scanning bonds ...
  4 = max bonds/atom
  scanning angles ...
  8 = max angles/atom
  scanning dihedrals ...
  18 = max dihedrals/atom
  scanning impropers ...
  2 = max impropers/atom
  reading bonds ...
  27723 bonds
  reading angles ...
  40467 angles
  reading dihedrals ...
  56829 dihedrals
  reading impropers ...
  1034 impropers
Finding 1-2 1-3 1-4 neighbors ...
  special bond factors lj:    0        0        0       
  special bond factors coul:  0        0        0       
     4 = max # of 1-2 neighbors
    12 = max # of 1-3 neighbors
    24 = max # of 1-4 neighbors
    26 = max # of special neighbors
  special bonds CPU = 0.006 seconds
  read_data CPU = 0.402 seconds
Finding SHAKE clusters ...
    1617 = # of size 2 clusters
    3633 = # of size 3 clusters
     747 = # of size 4 clusters
    4233 = # of frozen angles
  find clusters CPU = 0.003 seconds

CITE-CITE-CITE-CITE-CITE-CITE-CITE-CITE-CITE-CITE-CITE-CITE-CITE

Your simulation uses code contributions which should be cited:
- GPU package (short-range, long-range and three-body potentials):
The log file lists these citations in BibTeX format.

CITE-CITE-CITE-CITE-CITE-CITE-CITE-CITE-CITE-CITE-CITE-CITE-CITE

PPPM initialization ...
  using 12-bit tables for long-range coulomb (../kspace.cpp:340)
  G vector (1/distance) = 0.24883488
  grid = 25 32 32
  stencil order = 5
  estimated absolute RMS force accuracy = 0.035547797
  estimated relative force accuracy = 0.00010705113
  using single precision MKL FFT
  3d grid and FFT values/proc = 5202 1600

--------------------------------------------------------------------------
- Using acceleration for pppm:
-  with 3 proc(s) per device.
-  Horizontal vector operations: ENABLED
-  Shared memory system: No
--------------------------------------------------------------------------
Device 0: Tesla V100-SXM2-16GB, 80 CUs, 15/16 GB, 1.5 GHZ (Single Precision)
Device 1: Tesla V100-SXM2-16GB, 80 CUs, 1.5 GHZ (Single Precision)
Device 2: Tesla V100-SXM2-16GB, 80 CUs, 1.5 GHZ (Single Precision)
Device 3: Tesla V100-SXM2-16GB, 80 CUs, 1.5 GHZ (Single Precision)
Device 4: Tesla V100-SXM2-16GB, 80 CUs, 1.5 GHZ (Single Precision)
Device 5: Tesla V100-SXM2-16GB, 80 CUs, 1.5 GHZ (Single Precision)
--------------------------------------------------------------------------

Initializing Device and compiling on process 0...Done.
Initializing Devices 0-5 on core 0...Done.
Initializing Devices 0-5 on core 1...Done.
Initializing Devices 0-5 on core 2...Done.


--------------------------------------------------------------------------
- Using acceleration for lj/charmm/coul/long:
-  with 3 proc(s) per device.
-  Horizontal vector operations: ENABLED
-  Shared memory system: No
--------------------------------------------------------------------------
Device 0: Tesla V100-SXM2-16GB, 80 CUs, 15/16 GB, 1.5 GHZ (Single Precision)
Device 1: Tesla V100-SXM2-16GB, 80 CUs, 1.5 GHZ (Single Precision)
Device 2: Tesla V100-SXM2-16GB, 80 CUs, 1.5 GHZ (Single Precision)
Device 3: Tesla V100-SXM2-16GB, 80 CUs, 1.5 GHZ (Single Precision)
Device 4: Tesla V100-SXM2-16GB, 80 CUs, 1.5 GHZ (Single Precision)
Device 5: Tesla V100-SXM2-16GB, 80 CUs, 1.5 GHZ (Single Precision)
--------------------------------------------------------------------------

Initializing Device and compiling on process 0...Done.
Initializing Devices 0-5 on core 0...Done.
Initializing Devices 0-5 on core 1...Done.
Initializing Devices 0-5 on core 2...Done.

  generated 2278 of 2278 mixed pair_coeff terms from arithmetic mixing rule
Setting up Verlet run ...
  Unit style    : real
  Current step  : 0
  Time step     : 2
Per MPI rank memory allocation (min/avg/max) = 18.27 | 18.41 | 18.7 Mbytes
---------------- Step        0 ----- CPU =      0.0000 (sec) ----------------
TotEng   =    -25356.2685 KinEng   =     21444.8313 Temp     =       299.0397 
PotEng   =    -46801.0998 E_bond   =      2537.9940 E_angle  =     10921.3742 
E_dihed  =      5211.7865 E_impro  =       213.5116 E_vdwl   =     -2307.8634 
E_coul   =    207025.8395 E_long   =   -270403.7422 Press    =      -149.3322 
Volume   =    307995.0335 
---------------- Step       50 ----- CPU =      0.2229 (sec) ----------------
TotEng   =    -25330.0867 KinEng   =     21500.9984 Temp     =       299.8229 
PotEng   =    -46831.0851 E_bond   =      2471.7038 E_angle  =     10836.5110 
E_dihed  =      5239.6320 E_impro  =       227.1219 E_vdwl   =     -1993.2896 
E_coul   =    206797.6373 E_long   =   -270410.4014 Press    =       237.6557 
Volume   =    308031.6776 
---------------- Step      100 ----- CPU =      0.4221 (sec) ----------------
TotEng   =    -25290.7948 KinEng   =     21591.9070 Temp     =       301.0906 
PotEng   =    -46882.7019 E_bond   =      2567.9808 E_angle  =     10781.9578 
E_dihed  =      5198.7496 E_impro  =       216.7864 E_vdwl   =     -1902.6664 
E_coul   =    206659.4718 E_long   =   -270404.9818 Press    =         6.7219 
Volume   =    308134.2320 
---------------- Step      150 ----- CPU =      0.6143 (sec) ----------------
TotEng   =    -25258.1218 KinEng   =     21529.6598 Temp     =       300.2226 
PotEng   =    -46787.7816 E_bond   =      2556.3460 E_angle  =     10852.7828 
E_dihed  =      5265.2328 E_impro  =       203.0687 E_vdwl   =     -2066.1437 
E_coul   =    206797.4174 E_long   =   -270396.4855 Press    =       251.4668 
Volume   =    308515.2408 
---------------- Step      200 ----- CPU =      0.8086 (sec) ----------------
TotEng   =    -25078.8898 KinEng   =     21571.3105 Temp     =       300.8034 
PotEng   =    -46650.2003 E_bond   =      2488.6939 E_angle  =     11073.4406 
E_dihed  =      5221.7513 E_impro  =       232.8564 E_vdwl   =     -2167.6737 
E_coul   =    206902.8627 E_long   =   -270402.1315 Press    =        20.7654 
Volume   =    308997.5408 
---------------- Step      250 ----- CPU =      1.0020 (sec) ----------------
TotEng   =    -24944.4663 KinEng   =     21547.0357 Temp     =       300.4649 
PotEng   =    -46491.5020 E_bond   =      2542.5493 E_angle  =     11105.4809 
E_dihed  =      5239.6324 E_impro  =       212.3476 E_vdwl   =     -2168.7024 
E_coul   =    206989.3375 E_long   =   -270412.1471 Press    =      -169.6620 
Volume   =    309388.0643 
---------------- Step      300 ----- CPU =      1.1901 (sec) ----------------
TotEng   =    -24999.5595 KinEng   =     21498.2726 Temp     =       299.7849 
PotEng   =    -46497.8321 E_bond   =      2557.7741 E_angle  =     10921.9250 
E_dihed  =      5211.1070 E_impro  =       222.1607 E_vdwl   =     -2217.5199 
E_coul   =    207193.5008 E_long   =   -270386.7797 Press    =      -367.5019 
Volume   =    309663.5290 
---------------- Step      350 ----- CPU =      1.3835 (sec) ----------------
TotEng   =    -25128.0939 KinEng   =     21461.8179 Temp     =       299.2765 
PotEng   =    -46589.9118 E_bond   =      2580.5757 E_angle  =     10952.0217 
E_dihed  =      5250.7915 E_impro  =       212.6867 E_vdwl   =     -2165.4703 
E_coul   =    206981.1911 E_long   =   -270401.7081 Press    =      -334.2314 
Volume   =    309801.3881 
---------------- Step      400 ----- CPU =      1.5715 (sec) ----------------
TotEng   =    -25204.3522 KinEng   =     21419.7895 Temp     =       298.6905 
PotEng   =    -46624.1417 E_bond   =      2526.7368 E_angle  =     10967.3829 
E_dihed  =      5205.9577 E_impro  =       212.8617 E_vdwl   =     -2170.9596 
E_coul   =    207048.2048 E_long   =   -270414.3260 Press    =       203.9180 
Volume   =    309818.7514 
---------------- Step      450 ----- CPU =      1.7689 (sec) ----------------
TotEng   =    -25160.5380 KinEng   =     21505.9202 Temp     =       299.8915 
PotEng   =    -46666.4582 E_bond   =      2501.4012 E_angle  =     10960.8358 
E_dihed  =      5244.4560 E_impro  =       226.1009 E_vdwl   =     -2283.7027 
E_coul   =    207071.9971 E_long   =   -270387.5466 Press    =       143.7058 
Volume   =    309780.5745 
---------------- Step      500 ----- CPU =      1.9599 (sec) ----------------
TotEng   =    -25007.6192 KinEng   =     21643.0874 Temp     =       301.8043 
PotEng   =    -46650.7066 E_bond   =      2568.1921 E_angle  =     10947.5156 
E_dihed  =      5265.1809 E_impro  =       215.2651 E_vdwl   =     -2160.0815 
E_coul   =    206918.6515 E_long   =   -270405.4301 Press    =      -281.4443 
Volume   =    309777.6141 
---------------- Step      550 ----- CPU =      2.1553 (sec) ----------------
TotEng   =    -24990.7993 KinEng   =     21585.3650 Temp     =       300.9994 
PotEng   =    -46576.1643 E_bond   =      2514.1727 E_angle  =     10922.1771 
E_dihed  =      5201.4232 E_impro  =       226.4271 E_vdwl   =     -1928.7685 
E_coul   =    206885.9461 E_long   =   -270397.5421 Press    =       432.0197 
Volume   =    309748.8454 
---------------- Step      600 ----- CPU =      2.3485 (sec) ----------------
TotEng   =    -25082.3440 KinEng   =     21680.0933 Temp     =       302.3203 
PotEng   =    -46762.4373 E_bond   =      2539.7607 E_angle  =     10861.7098 
E_dihed  =      5253.1977 E_impro  =       218.4258 E_vdwl   =     -2056.3368 
E_coul   =    206828.2591 E_long   =   -270407.4536 Press    =       210.7381 
Volume   =    309890.2625 
Loop time of 2.34863 on 18 procs for 600 steps with 32000 atoms

Performance: 44.145 ns/day, 0.544 hours/ns, 255.468 timesteps/s
96.2% CPU use with 18 MPI tasks x 1 OpenMP threads

MPI task timing breakdown:
Section |  min time  |  avg time  |  max time  |%varavg| %total
---------------------------------------------------------------
Pair    | 0.26613    | 0.32018    | 0.37596    |   5.1 | 13.63
Bond    | 0.23638    | 0.42168    | 0.67358    |  27.1 | 17.95
Kspace  | 0.53142    | 0.78609    | 0.9787     |  19.9 | 33.47
Neigh   | 0.040114   | 0.041215   | 0.041887   |   0.2 |  1.75
Comm    | 0.2053     | 0.21407    | 0.24432    |   3.1 |  9.11
Output  | 0.00080505 | 0.00082615 | 0.001115   |   0.0 |  0.04
Modify  | 0.4328     | 0.5321     | 0.5912     |   5.9 | 22.66
Other   |            | 0.03246    |            |       |  1.38

Nlocal:        1777.78 ave        1843 max        1717 min
Histogram: 2 2 2 1 2 4 1 0 3 1
Nghost:        11021.9 ave       11167 max       10872 min
Histogram: 2 1 3 2 2 1 1 0 2 4
Neighs:              0 ave           0 max           0 min
Histogram: 18 0 0 0 0 0 0 0 0 0

Total # of neighbors = 0
Ave neighs/atom = 0
Ave special neighs/atom = 7.431875
Neighbor list builds = 66
Dangerous builds = 0


---------------------------------------------------------------------
      Device Time Info (average): 
---------------------------------------------------------------------
Data Transfer:   0.0180 s.
Neighbor copy:   0.0332 s.
Neighbor build:  0.1201 s.
Force calc:      0.3584 s.
Device Overhead: 0.2143 s.
Average split:   1.0000.
Lanes / atom:    8.
Vector width:    32.
Max Mem / Proc:  8.92 MB.
CPU Neighbor:    0.0277 s.
CPU Cast/Pack:   0.0516 s.
CPU Driver_Time: 0.0166 s.
CPU Idle_Time:   0.0026 s.
---------------------------------------------------------------------



---------------------------------------------------------------------
    Device Time Info (average) for kspace: 
---------------------------------------------------------------------
Data Out:        0.0120 s.
Data In:         0.0392 s.
Kernel (map):    0.2236 s.
Kernel (rho):    0.0693 s.
Force interp:    0.1190 s.
Total rho:       0.3048 s.
Total interp:    0.1582 s.
Force copy:      0.0091 s.
Total:           0.4721 s.
CPU Poisson:     0.5653 s.
CPU Data Cast:   0.0035 s.
CPU Idle Time:   0.1860 s.
Max Mem / Proc:  0.56 MB.
---------------------------------------------------------------------

Total wall time: 0:00:24
Intel(R) VTune(TM) Profiler 2022.2.0 collection completed successfully. Use the "aps --report /home/ubuntu/lammps/bench/aps_result_20220609" command to generate textual and HTML reports for the profiling session.
