LAMMPS (7 Jan 2022)
  using 1 OpenMP thread(s) per MPI task
New timer settings: style=full  mode=sync  timeout=off
Reading data file ...
  orthogonal box = (-27.5 -38.5 -36.3646) to (27.5 38.5 36.3615)
  2 by 3 by 2 MPI processor grid
  reading atoms ...
  32000 atoms
  reading velocities ...
  32000 velocities
  scanning bonds ...
  4 = max bonds/atom
  scanning angles ...
  8 = max angles/atom
  scanning dihedrals ...
  18 = max dihedrals/atom
  scanning impropers ...
  2 = max impropers/atom
  reading bonds ...
  27723 bonds
  reading angles ...
  40467 angles
  reading dihedrals ...
  56829 dihedrals
  reading impropers ...
  1034 impropers
Finding 1-2 1-3 1-4 neighbors ...
  special bond factors lj:    0        0        0       
  special bond factors coul:  0        0        0       
     4 = max # of 1-2 neighbors
    12 = max # of 1-3 neighbors
    24 = max # of 1-4 neighbors
    26 = max # of special neighbors
  special bonds CPU = 0.005 seconds
  read_data CPU = 0.321 seconds
Finding SHAKE clusters ...
    1617 = # of size 2 clusters
    3633 = # of size 3 clusters
     747 = # of size 4 clusters
    4233 = # of frozen angles
  find clusters CPU = 0.003 seconds

CITE-CITE-CITE-CITE-CITE-CITE-CITE-CITE-CITE-CITE-CITE-CITE-CITE

Your simulation uses code contributions which should be cited:
- GPU package (short-range, long-range and three-body potentials):
The log file lists these citations in BibTeX format.

CITE-CITE-CITE-CITE-CITE-CITE-CITE-CITE-CITE-CITE-CITE-CITE-CITE

PPPM initialization ...
  using 12-bit tables for long-range coulomb (../kspace.cpp:340)
  G vector (1/distance) = 0.24883488
  grid = 25 32 32
  stencil order = 5
  estimated absolute RMS force accuracy = 0.035547797
  estimated relative force accuracy = 0.00010705113
  using single precision MKL FFT
  3d grid and FFT values/proc = 6426 2400

--------------------------------------------------------------------------
- Using acceleration for pppm:
-  with 3 proc(s) per device.
-  Horizontal vector operations: ENABLED
-  Shared memory system: No
--------------------------------------------------------------------------
Device 0: Tesla V100-SXM2-16GB, 80 CUs, 15/16 GB, 1.5 GHZ (Mixed Precision)
Device 1: Tesla V100-SXM2-16GB, 80 CUs, 1.5 GHZ (Mixed Precision)
Device 2: Tesla V100-SXM2-16GB, 80 CUs, 1.5 GHZ (Mixed Precision)
Device 3: Tesla V100-SXM2-16GB, 80 CUs, 1.5 GHZ (Mixed Precision)
--------------------------------------------------------------------------

Initializing Device and compiling on process 0...Done.
Initializing Devices 0-3 on core 0...Done.
Initializing Devices 0-3 on core 1...Done.
Initializing Devices 0-3 on core 2...Done.


--------------------------------------------------------------------------
- Using acceleration for lj/charmm/coul/long:
-  with 3 proc(s) per device.
-  Horizontal vector operations: ENABLED
-  Shared memory system: No
--------------------------------------------------------------------------
Device 0: Tesla V100-SXM2-16GB, 80 CUs, 15/16 GB, 1.5 GHZ (Mixed Precision)
Device 1: Tesla V100-SXM2-16GB, 80 CUs, 1.5 GHZ (Mixed Precision)
Device 2: Tesla V100-SXM2-16GB, 80 CUs, 1.5 GHZ (Mixed Precision)
Device 3: Tesla V100-SXM2-16GB, 80 CUs, 1.5 GHZ (Mixed Precision)
--------------------------------------------------------------------------

Initializing Device and compiling on process 0...Done.
Initializing Devices 0-3 on core 0...Done.
Initializing Devices 0-3 on core 1...Done.
Initializing Devices 0-3 on core 2...Done.

  generated 2278 of 2278 mixed pair_coeff terms from arithmetic mixing rule
Setting up Verlet run ...
  Unit style    : real
  Current step  : 0
  Time step     : 2
Per MPI rank memory allocation (min/avg/max) = 18.46 | 18.55 | 18.69 Mbytes
---------------- Step        0 ----- CPU =      0.0000 (sec) ----------------
TotEng   =    -25356.2687 KinEng   =     21444.8313 Temp     =       299.0397 
PotEng   =    -46801.1000 E_bond   =      2537.9940 E_angle  =     10921.3742 
E_dihed  =      5211.7865 E_impro  =       213.5116 E_vdwl   =     -2307.8635 
E_coul   =    207025.8394 E_long   =   -270403.7421 Press    =      -149.3321 
Volume   =    307995.0335 
---------------- Step       50 ----- CPU =      0.2118 (sec) ----------------
TotEng   =    -25330.0813 KinEng   =     21500.9993 Temp     =       299.8229 
PotEng   =    -46831.0806 E_bond   =      2471.7037 E_angle  =     10836.5109 
E_dihed  =      5239.6320 E_impro  =       227.1218 E_vdwl   =     -1993.2892 
E_coul   =    206797.6415 E_long   =   -270410.4014 Press    =       237.6564 
Volume   =    308031.6776 
---------------- Step      100 ----- CPU =      0.4301 (sec) ----------------
TotEng   =    -25290.7887 KinEng   =     21591.9064 Temp     =       301.0906 
PotEng   =    -46882.6951 E_bond   =      2567.9807 E_angle  =     10781.9579 
E_dihed  =      5198.7496 E_impro  =       216.7865 E_vdwl   =     -1902.6687 
E_coul   =    206659.4810 E_long   =   -270404.9820 Press    =         6.7266 
Volume   =    308134.2324 
---------------- Step      150 ----- CPU =      0.6349 (sec) ----------------
TotEng   =    -25258.1108 KinEng   =     21529.6599 Temp     =       300.2226 
PotEng   =    -46787.7707 E_bond   =      2556.3448 E_angle  =     10852.7820 
E_dihed  =      5265.2330 E_impro  =       203.0689 E_vdwl   =     -2066.1493 
E_coul   =    206797.4364 E_long   =   -270396.4866 Press    =       251.4761 
Volume   =    308515.2409 
---------------- Step      200 ----- CPU =      0.8465 (sec) ----------------
TotEng   =    -25078.9741 KinEng   =     21571.2062 Temp     =       300.8019 
PotEng   =    -46650.1803 E_bond   =      2488.6947 E_angle  =     11073.4402 
E_dihed  =      5221.7517 E_impro  =       232.8567 E_vdwl   =     -2167.6174 
E_coul   =    206902.8139 E_long   =   -270402.1199 Press    =        20.7130 
Volume   =    308997.5483 
---------------- Step      250 ----- CPU =      1.0676 (sec) ----------------
TotEng   =    -24944.3532 KinEng   =     21547.6976 Temp     =       300.4741 
PotEng   =    -46492.0508 E_bond   =      2542.5571 E_angle  =     11105.4369 
E_dihed  =      5239.6498 E_impro  =       212.3510 E_vdwl   =     -2168.7900 
E_coul   =    206988.9224 E_long   =   -270412.1779 Press    =      -169.9284 
Volume   =    309388.1491 
---------------- Step      300 ----- CPU =      1.2731 (sec) ----------------
TotEng   =    -25000.8157 KinEng   =     21497.0476 Temp     =       299.7678 
PotEng   =    -46497.8633 E_bond   =      2558.0915 E_angle  =     10923.1056 
E_dihed  =      5211.1852 E_impro  =       222.2976 E_vdwl   =     -2221.3965 
E_coul   =    207195.5697 E_long   =   -270386.7164 Press    =      -373.6666 
Volume   =    309663.3431 
---------------- Step      350 ----- CPU =      1.4971 (sec) ----------------
TotEng   =    -25131.3367 KinEng   =     21467.8505 Temp     =       299.3607 
PotEng   =    -46599.1872 E_bond   =      2580.1952 E_angle  =     10952.0928 
E_dihed  =      5250.4631 E_impro  =       212.6494 E_vdwl   =     -2164.7725 
E_coul   =    206971.8164 E_long   =   -270401.6315 Press    =      -332.3019 
Volume   =    309799.1691 
---------------- Step      400 ----- CPU =      1.7049 (sec) ----------------
TotEng   =    -25213.3230 KinEng   =     21431.2920 Temp     =       298.8509 
PotEng   =    -46644.6150 E_bond   =      2525.2680 E_angle  =     10965.9915 
E_dihed  =      5206.6226 E_impro  =       213.0771 E_vdwl   =     -2195.3643 
E_coul   =    207054.0481 E_long   =   -270414.2580 Press    =       178.9141 
Volume   =    309813.8307 
---------------- Step      450 ----- CPU =      1.9151 (sec) ----------------
TotEng   =    -25177.7699 KinEng   =     21492.8751 Temp     =       299.7096 
PotEng   =    -46670.6450 E_bond   =      2500.7416 E_angle  =     10954.9563 
E_dihed  =      5241.4896 E_impro  =       224.8578 E_vdwl   =     -2231.5506 
E_coul   =    207027.0322 E_long   =   -270388.1721 Press    =       179.8116 
Volume   =    309768.3950 
---------------- Step      500 ----- CPU =      2.1286 (sec) ----------------
TotEng   =    -25013.1038 KinEng   =     21620.9426 Temp     =       301.4955 
PotEng   =    -46634.0464 E_bond   =      2564.2340 E_angle  =     10941.6572 
E_dihed  =      5259.4508 E_impro  =       216.7772 E_vdwl   =     -2143.1020 
E_coul   =    206922.7183 E_long   =   -270395.7818 Press    =      -221.3690 
Volume   =    309753.9795 
---------------- Step      550 ----- CPU =      2.3419 (sec) ----------------
TotEng   =    -24957.1779 KinEng   =     21651.5877 Temp     =       301.9228 
PotEng   =    -46608.7656 E_bond   =      2508.5955 E_angle  =     10914.3595 
E_dihed  =      5205.4763 E_impro  =       226.5148 E_vdwl   =     -1961.6356 
E_coul   =    206897.4653 E_long   =   -270399.5414 Press    =       502.7416 
Volume   =    309718.0355 
---------------- Step      600 ----- CPU =      2.5479 (sec) ----------------
TotEng   =    -25035.1373 KinEng   =     21639.6536 Temp     =       301.7564 
PotEng   =    -46674.7909 E_bond   =      2557.8460 E_angle  =     10876.0184 
E_dihed  =      5249.3726 E_impro  =       218.4707 E_vdwl   =     -2107.5675 
E_coul   =    206936.8841 E_long   =   -270405.8151 Press    =       104.8875 
Volume   =    309886.5967 
Loop time of 2.54802 on 12 procs for 600 steps with 32000 atoms

Performance: 40.690 ns/day, 0.590 hours/ns, 235.477 timesteps/s
98.2% CPU use with 12 MPI tasks x 1 OpenMP threads

MPI task timing breakdown:
Section |  min time  |  avg time  |  max time  |%varavg|  %CPU | %total
-----------------------------------------------------------------------
Pair    | 0.26789    | 0.30523    | 0.35222    |   4.3 |  98.1 | 11.98
Bond    | 0.48481    | 0.54603    | 0.67595    |   8.1 |  98.5 | 21.43
Kspace  | 0.48674    | 0.48718    | 0.48799    |   0.1 |  98.1 | 19.12
Neigh   | 0.048831   | 0.048849   | 0.048865   |   0.0 |  96.7 |  1.92
Comm    | 0.22618    | 0.22817    | 0.23042    |   0.2 |  97.5 |  8.95
Output  | 0.00091    | 0.00093825 | 0.0012153  |   0.0 | 100.0 |  0.04
Modify  | 0.52902    | 0.58693    | 0.61849    |   4.8 |  98.2 | 23.03
Sync    | 0.20504    | 0.31931    | 0.42843    |  11.2 |  98.8 | 12.53
Other   |            | 0.3447     |            |       |       | 13.53

Nlocal:        2666.67 ave        2749 max        2621 min
Histogram: 3 2 1 2 0 1 1 0 1 1
Nghost:        13241.3 ave       13332 max       13118 min
Histogram: 1 0 1 2 1 1 0 2 3 1
Neighs:              0 ave           0 max           0 min
Histogram: 12 0 0 0 0 0 0 0 0 0

Total # of neighbors = 0
Ave neighs/atom = 0
Ave special neighs/atom = 7.431875
Neighbor list builds = 66
Dangerous builds = 0


---------------------------------------------------------------------
      Device Time Info (average): 
---------------------------------------------------------------------
Data Transfer:   0.0182 s.
Neighbor copy:   0.0364 s.
Neighbor build:  0.1216 s.
Force calc:      0.3765 s.
Device Overhead: 0.1924 s.
Average split:   1.0000.
Lanes / atom:    8.
Vector width:    32.
Max Mem / Proc:  13.19 MB.
CPU Neighbor:    0.0231 s.
CPU Cast/Pack:   0.0715 s.
CPU Driver_Time: 0.0108 s.
CPU Idle_Time:   0.0023 s.
---------------------------------------------------------------------



---------------------------------------------------------------------
    Device Time Info (average) for kspace: 
---------------------------------------------------------------------
Data Out:        0.0088 s.
Data In:         0.0449 s.
Kernel (map):    0.2118 s.
Kernel (rho):    0.0689 s.
Force interp:    0.1124 s.
Total rho:       0.2895 s.
Total interp:    0.1573 s.
Force copy:      0.0128 s.
Total:           0.4596 s.
CPU Poisson:     0.3501 s.
CPU Data Cast:   0.0074 s.
CPU Idle Time:   0.1123 s.
Max Mem / Proc:  0.88 MB.
---------------------------------------------------------------------

Total wall time: 0:00:09
Intel(R) VTune(TM) Profiler 2022.1.0 collection completed successfully. Use the "aps --report /home/ubuntu/lammps/bench/aps_result_20220414" command to generate textual and HTML reports for the profiling session.
