LAMMPS (7 Jan 2022)
  using 1 OpenMP thread(s) per MPI task
Reading data file ...
  orthogonal box = (-27.5 -38.5 -36.3646) to (27.5 38.5 36.3615)
  3 by 4 by 4 MPI processor grid
  reading atoms ...
  32000 atoms
  reading velocities ...
  32000 velocities
  scanning bonds ...
  4 = max bonds/atom
  scanning angles ...
  8 = max angles/atom
  scanning dihedrals ...
  18 = max dihedrals/atom
  scanning impropers ...
  2 = max impropers/atom
  reading bonds ...
  27723 bonds
  reading angles ...
  40467 angles
  reading dihedrals ...
  56829 dihedrals
  reading impropers ...
  1034 impropers
Finding 1-2 1-3 1-4 neighbors ...
  special bond factors lj:    0        0        0       
  special bond factors coul:  0        0        0       
     4 = max # of 1-2 neighbors
    12 = max # of 1-3 neighbors
    24 = max # of 1-4 neighbors
    26 = max # of special neighbors
  special bonds CPU = 0.007 seconds
  read_data CPU = 0.400 seconds
Replicating atoms ...
  orthogonal box = (-27.5 -38.5 -36.3646) to (192.5 269.5 254.5398)
  3 by 4 by 4 MPI processor grid
  2048000 atoms
  1774272 bonds
  2589888 angles
  3637056 dihedrals
  66176 impropers
Finding 1-2 1-3 1-4 neighbors ...
  special bond factors lj:    0        0        0       
  special bond factors coul:  0        0        0       
     4 = max # of 1-2 neighbors
    12 = max # of 1-3 neighbors
    24 = max # of 1-4 neighbors
    26 = max # of special neighbors
  special bonds CPU = 0.091 seconds
  replicate CPU = 0.209 seconds
Finding SHAKE clusters ...
  103488 = # of size 2 clusters
  232512 = # of size 3 clusters
   47808 = # of size 4 clusters
  270912 = # of frozen angles
  find clusters CPU = 0.043 seconds

CITE-CITE-CITE-CITE-CITE-CITE-CITE-CITE-CITE-CITE-CITE-CITE-CITE

Your simulation uses code contributions which should be cited:
- GPU package (short-range, long-range and three-body potentials):
The log file lists these citations in BibTeX format.

CITE-CITE-CITE-CITE-CITE-CITE-CITE-CITE-CITE-CITE-CITE-CITE-CITE

PPPM initialization ...
  using 12-bit tables for long-range coulomb (../kspace.cpp:340)
  G vector (1/distance) = 0.35917129
  grid = 450 576 576
  stencil order = 5
  estimated absolute RMS force accuracy = 4.4649648e-05
  estimated relative force accuracy = 1.3446109e-07
  using single precision MKL FFT
  3d grid and FFT values/proc = 3722031 3110400

--------------------------------------------------------------------------
- Using acceleration for pppm:
-  with 12 proc(s) per device.
-  Horizontal vector operations: ENABLED
-  Shared memory system: No
--------------------------------------------------------------------------
Device 0: Tesla V100-SXM2-16GB, 80 CUs, 12/16 GB, 1.5 GHZ (Mixed Precision)
Device 1: Tesla V100-SXM2-16GB, 80 CUs, 1.5 GHZ (Mixed Precision)
Device 2: Tesla V100-SXM2-16GB, 80 CUs, 1.5 GHZ (Mixed Precision)
Device 3: Tesla V100-SXM2-16GB, 80 CUs, 1.5 GHZ (Mixed Precision)
--------------------------------------------------------------------------

Initializing Device and compiling on process 0...Done.
Initializing Devices 0-3 on core 0...Done.
Initializing Devices 0-3 on core 1...Done.
Initializing Devices 0-3 on core 2...Done.
Initializing Devices 0-3 on core 3...Done.
Initializing Devices 0-3 on core 4...Done.
Initializing Devices 0-3 on core 5...Done.
Initializing Devices 0-3 on core 6...Done.
Initializing Devices 0-3 on core 7...Done.
Initializing Devices 0-3 on core 8...Done.
Initializing Devices 0-3 on core 9...Done.
Initializing Devices 0-3 on core 10...Done.
Initializing Devices 0-3 on core 11...Done.


--------------------------------------------------------------------------
- Using acceleration for lj/charmm/coul/long:
-  with 12 proc(s) per device.
-  Horizontal vector operations: ENABLED
-  Shared memory system: No
--------------------------------------------------------------------------
Device 0: Tesla V100-SXM2-16GB, 80 CUs, 4.9/16 GB, 1.5 GHZ (Mixed Precision)
Device 1: Tesla V100-SXM2-16GB, 80 CUs, 1.5 GHZ (Mixed Precision)
Device 2: Tesla V100-SXM2-16GB, 80 CUs, 1.5 GHZ (Mixed Precision)
Device 3: Tesla V100-SXM2-16GB, 80 CUs, 1.5 GHZ (Mixed Precision)
--------------------------------------------------------------------------

Initializing Device and compiling on process 0...Done.
Initializing Devices 0-3 on core 0...Done.
Initializing Devices 0-3 on core 1...Done.
Initializing Devices 0-3 on core 2...Done.
Initializing Devices 0-3 on core 3...Done.
Initializing Devices 0-3 on core 4...Done.
Initializing Devices 0-3 on core 5...Done.
Initializing Devices 0-3 on core 6...Done.
Initializing Devices 0-3 on core 7...Done.
Initializing Devices 0-3 on core 8...Done.
Initializing Devices 0-3 on core 9...Done.
Initializing Devices 0-3 on core 10...Done.
Initializing Devices 0-3 on core 11...Done.

  generated 2278 of 2278 mixed pair_coeff terms from arithmetic mixing rule
Setting up Verlet run ...
  Unit style    : real
  Current step  : 0
  Time step     : 2
Per MPI rank memory allocation (min/avg/max) = 415.8 | 415.8 | 415.8 Mbytes
---------------- Step        0 ----- CPU =      0.0000 (sec) ----------------
TotEng   =  -1622979.6329 KinEng   =   1372469.2022 Temp     =       299.0274 
PotEng   =  -2995448.8350 E_bond   =    162431.6167 E_angle  =    698967.9493 
E_dihed  =    333554.3360 E_impro  =     13664.7415 E_vdwl   =   -147703.3196 
E_coul   =  20859257.0327 E_long   = -24915621.1916 Press    =      -152.9943 
Volume   =  19711682.1440 
---------------- Step       50 ----- CPU =    125.5003 (sec) ----------------
TotEng   =  -1621302.5714 KinEng   =   1376085.1617 Temp     =       299.8153 
PotEng   =  -2997387.7331 E_bond   =    158186.8463 E_angle  =    693554.4142 
E_dihed  =    335326.9184 E_impro  =     14537.2408 E_vdwl   =   -127519.9548 
E_coul   =  20845477.4431 E_long   = -24916950.6410 Press    =       234.7505 
Volume   =  19713990.9420 
---------------- Step      100 ----- CPU =    249.1099 (sec) ----------------
TotEng   =  -1618405.7125 KinEng   =   1381886.3975 Temp     =       301.0792 
PotEng   =  -3000292.1100 E_bond   =    164344.8915 E_angle  =    690027.6344 
E_dihed  =    332709.0190 E_impro  =     13874.2467 E_vdwl   =   -121617.7948 
E_coul   =  20836977.5146 E_long   = -24916607.6214 Press    =        12.2431 
Volume   =  19720480.6288 
Loop time of 249.11 on 48 procs for 100 steps with 2048000 atoms

Performance: 0.069 ns/day, 345.986 hours/ns, 0.401 timesteps/s
91.9% CPU use with 48 MPI tasks x 1 OpenMP threads

MPI task timing breakdown:
Section |  min time  |  avg time  |  max time  |%varavg| %total
---------------------------------------------------------------
Pair    | 23.429     | 24.048     | 24.61      |   9.8 |  9.65
Bond    | 1.5793     | 1.6424     | 1.7624     |   3.5 |  0.66
Kspace  | 162.16     | 162.66     | 163.09     |   2.0 | 65.29
Neigh   | 0.32866    | 0.33547    | 0.33876    |   0.3 |  0.13
Comm    | 4.1389     | 5.3355     | 6.3797     |  19.1 |  2.14
Output  | 0.00056199 | 0.00058704 | 0.00065683 |   0.0 |  0.00
Modify  | 46.38      | 47.495     | 50.433     |   9.6 | 19.07
Other   |            | 7.597      |            |       |  3.05

Nlocal:        42666.7 ave       42689 max       42636 min
Histogram: 16 0 0 0 0 0 0 16 0 16
Nghost:        55810.3 ave       55827 max       55802 min
Histogram: 32 0 0 0 0 0 0 0 0 16
Neighs:              0 ave           0 max           0 min
Histogram: 48 0 0 0 0 0 0 0 0 0

Total # of neighbors = 0
Ave neighs/atom = 0
Ave special neighs/atom = 7.431875
Neighbor list builds = 11
Dangerous builds = 0


---------------------------------------------------------------------
      Device Time Info (average): 
---------------------------------------------------------------------
Data Transfer:   0.3245 s.
Neighbor copy:   0.2781 s.
Neighbor build:  0.4618 s.
Force calc:      0.1726 s.
Device Overhead: 0.1305 s.
Average split:   1.0000.
Lanes / atom:    8.
Vector width:    32.
Max Mem / Proc:  198.74 MB.
CPU Neighbor:    0.0878 s.
CPU Cast/Pack:   0.1823 s.
CPU Driver_Time: 0.0030 s.
CPU Idle_Time:   0.0025 s.
---------------------------------------------------------------------



---------------------------------------------------------------------
    Device Time Info (average) for kspace: 
---------------------------------------------------------------------
Data Out:        3.1710 s.
Data In:         23.9001 s.
Kernel (map):    0.3392 s.
Kernel (rho):    0.0877 s.
Force interp:    0.0862 s.
Total rho:       3.5979 s.
Total interp:    23.9863 s.
Force copy:      0.0357 s.
Total:           27.6198 s.
CPU Poisson:     161.2898 s.
CPU Data Cast:   0.0257 s.
CPU Idle Time:   3.1143 s.
Max Mem / Proc:  613.50 MB.
---------------------------------------------------------------------

Total wall time: 0:05:18
Intel(R) VTune(TM) Profiler 2022.2.0 collection completed successfully. Use the "aps --report /home/ubuntu/lammps/bench/aps_result_20220531" command to generate textual and HTML reports for the profiling session.
