LAMMPS (7 Jan 2022)
  using 1 OpenMP thread(s) per MPI task
Reading data file ...
  orthogonal box = (-27.5 -38.5 -36.3646) to (27.5 38.5 36.3615)
  2 by 3 by 2 MPI processor grid
  reading atoms ...
  32000 atoms
  reading velocities ...
  32000 velocities
  scanning bonds ...
  4 = max bonds/atom
  scanning angles ...
  8 = max angles/atom
  scanning dihedrals ...
  18 = max dihedrals/atom
  scanning impropers ...
  2 = max impropers/atom
  reading bonds ...
  27723 bonds
  reading angles ...
  40467 angles
  reading dihedrals ...
  56829 dihedrals
  reading impropers ...
  1034 impropers
Finding 1-2 1-3 1-4 neighbors ...
  special bond factors lj:    0        0        0       
  special bond factors coul:  0        0        0       
     4 = max # of 1-2 neighbors
    12 = max # of 1-3 neighbors
    24 = max # of 1-4 neighbors
    26 = max # of special neighbors
  special bonds CPU = 0.004 seconds
  read_data CPU = 0.437 seconds
Finding SHAKE clusters ...
    1617 = # of size 2 clusters
    3633 = # of size 3 clusters
     747 = # of size 4 clusters
    4233 = # of frozen angles
  find clusters CPU = 0.003 seconds

CITE-CITE-CITE-CITE-CITE-CITE-CITE-CITE-CITE-CITE-CITE-CITE-CITE

Your simulation uses code contributions which should be cited:
- GPU package (short-range, long-range and three-body potentials):
The log file lists these citations in BibTeX format.

CITE-CITE-CITE-CITE-CITE-CITE-CITE-CITE-CITE-CITE-CITE-CITE-CITE

PPPM initialization ...
  using 12-bit tables for long-range coulomb (../kspace.cpp:340)
  G vector (1/distance) = 0.24883488
  grid = 25 32 32
  stencil order = 5
  estimated absolute RMS force accuracy = 0.035547797
  estimated relative force accuracy = 0.00010705113
  using single precision MKL FFT
  3d grid and FFT values/proc = 6426 2400

--------------------------------------------------------------------------
- Using acceleration for pppm:
-  with 3 proc(s) per device.
-  Horizontal vector operations: ENABLED
-  Shared memory system: No
--------------------------------------------------------------------------
Device 0: Tesla V100-SXM2-16GB, 80 CUs, 15/16 GB, 1.5 GHZ (Double Precision)
Device 1: Tesla V100-SXM2-16GB, 80 CUs, 1.5 GHZ (Double Precision)
Device 2: Tesla V100-SXM2-16GB, 80 CUs, 1.5 GHZ (Double Precision)
Device 3: Tesla V100-SXM2-16GB, 80 CUs, 1.5 GHZ (Double Precision)
--------------------------------------------------------------------------

Initializing Device and compiling on process 0...Done.
Initializing Devices 0-3 on core 0...Done.
Initializing Devices 0-3 on core 1...Done.
Initializing Devices 0-3 on core 2...Done.


--------------------------------------------------------------------------
- Using acceleration for lj/charmm/coul/long:
-  with 3 proc(s) per device.
-  Horizontal vector operations: ENABLED
-  Shared memory system: No
--------------------------------------------------------------------------
Device 0: Tesla V100-SXM2-16GB, 80 CUs, 15/16 GB, 1.5 GHZ (Double Precision)
Device 1: Tesla V100-SXM2-16GB, 80 CUs, 1.5 GHZ (Double Precision)
Device 2: Tesla V100-SXM2-16GB, 80 CUs, 1.5 GHZ (Double Precision)
Device 3: Tesla V100-SXM2-16GB, 80 CUs, 1.5 GHZ (Double Precision)
--------------------------------------------------------------------------

Initializing Device and compiling on process 0...Done.
Initializing Devices 0-3 on core 0...Done.
Initializing Devices 0-3 on core 1...Done.
Initializing Devices 0-3 on core 2...Done.

  generated 2278 of 2278 mixed pair_coeff terms from arithmetic mixing rule
Setting up Verlet run ...
  Unit style    : real
  Current step  : 0
  Time step     : 2
Per MPI rank memory allocation (min/avg/max) = 19.13 | 19.22 | 19.36 Mbytes
---------------- Step        0 ----- CPU =      0.0000 (sec) ----------------
TotEng   =    -25356.2131 KinEng   =     21444.8313 Temp     =       299.0397 
PotEng   =    -46801.0444 E_bond   =      2537.9940 E_angle  =     10921.3742 
E_dihed  =      5211.7865 E_impro  =       213.5116 E_vdwl   =     -2307.8634 
E_coul   =    207025.8948 E_long   =   -270403.7421 Press    =      -149.3265 
Volume   =    307995.0335 
---------------- Step       50 ----- CPU =      0.2465 (sec) ----------------
TotEng   =    -25330.0358 KinEng   =     21500.9987 Temp     =       299.8229 
PotEng   =    -46831.0346 E_bond   =      2471.7036 E_angle  =     10836.5106 
E_dihed  =      5239.6321 E_impro  =       227.1218 E_vdwl   =     -1993.2895 
E_coul   =    206797.6880 E_long   =   -270410.4012 Press    =       237.6594 
Volume   =    308031.6774 
---------------- Step      100 ----- CPU =      0.4776 (sec) ----------------
TotEng   =    -25290.7430 KinEng   =     21591.9063 Temp     =       301.0906 
PotEng   =    -46882.6493 E_bond   =      2567.9808 E_angle  =     10781.9583 
E_dihed  =      5198.7494 E_impro  =       216.7864 E_vdwl   =     -1902.6655 
E_coul   =    206659.5234 E_long   =   -270404.9821 Press    =         6.7345 
Volume   =    308134.2315 
---------------- Step      150 ----- CPU =      0.6964 (sec) ----------------
TotEng   =    -25258.0328 KinEng   =     21529.6489 Temp     =       300.2224 
PotEng   =    -46787.6817 E_bond   =      2556.3466 E_angle  =     10852.7817 
E_dihed  =      5265.2315 E_impro  =       203.0691 E_vdwl   =     -2066.1416 
E_coul   =    206797.5136 E_long   =   -270396.4826 Press    =       251.5192 
Volume   =    308515.2453 
---------------- Step      200 ----- CPU =      0.9202 (sec) ----------------
TotEng   =    -25078.8610 KinEng   =     21571.4089 Temp     =       300.8047 
PotEng   =    -46650.2699 E_bond   =      2488.6950 E_angle  =     11073.4392 
E_dihed  =      5221.7539 E_impro  =       232.8555 E_vdwl   =     -2167.6935 
E_coul   =    206902.8049 E_long   =   -270402.1248 Press    =        20.6707 
Volume   =    308997.5614 
---------------- Step      250 ----- CPU =      1.1444 (sec) ----------------
TotEng   =    -24944.3351 KinEng   =     21546.9534 Temp     =       300.4637 
PotEng   =    -46491.2885 E_bond   =      2542.5497 E_angle  =     11105.4890 
E_dihed  =      5239.6558 E_impro  =       212.3474 E_vdwl   =     -2169.1404 
E_coul   =    206990.0118 E_long   =   -270412.2019 Press    =      -170.0140 
Volume   =    309388.0701 
---------------- Step      300 ----- CPU =      1.3636 (sec) ----------------
TotEng   =    -24999.7987 KinEng   =     21502.0321 Temp     =       299.8373 
PotEng   =    -46501.8308 E_bond   =      2557.9304 E_angle  =     10921.7615 
E_dihed  =      5211.0690 E_impro  =       222.1795 E_vdwl   =     -2220.6583 
E_coul   =    207192.7522 E_long   =   -270386.8651 Press    =      -371.3454 
Volume   =    309663.6641 
---------------- Step      350 ----- CPU =      1.5924 (sec) ----------------
TotEng   =    -25128.4864 KinEng   =     21462.4308 Temp     =       299.2851 
PotEng   =    -46590.9172 E_bond   =      2580.5147 E_angle  =     10951.9097 
E_dihed  =      5250.5656 E_impro  =       212.6937 E_vdwl   =     -2167.8561 
E_coul   =    206983.3227 E_long   =   -270402.0675 Press    =      -335.4735 
Volume   =    309801.3834 
---------------- Step      400 ----- CPU =      1.8191 (sec) ----------------
TotEng   =    -25202.6249 KinEng   =     21400.0636 Temp     =       298.4154 
PotEng   =    -46602.6885 E_bond   =      2526.6684 E_angle  =     10968.0676 
E_dihed  =      5206.3994 E_impro  =       212.4549 E_vdwl   =     -2141.5072 
E_coul   =    207037.0908 E_long   =   -270411.8624 Press    =       235.8597 
Volume   =    309816.3665 
---------------- Step      450 ----- CPU =      2.0428 (sec) ----------------
TotEng   =    -25135.2409 KinEng   =     21490.6129 Temp     =       299.6781 
PotEng   =    -46625.8538 E_bond   =      2501.9120 E_angle  =     10967.1878 
E_dihed  =      5244.6989 E_impro  =       225.9419 E_vdwl   =     -2261.5421 
E_coul   =    207091.6159 E_long   =   -270395.6682 Press    =       161.9096 
Volume   =    309784.4286 
---------------- Step      500 ----- CPU =      2.2684 (sec) ----------------
TotEng   =    -24938.3220 KinEng   =     21673.5154 Temp     =       302.2286 
PotEng   =    -46611.8374 E_bond   =      2573.1265 E_angle  =     10957.1747 
E_dihed  =      5266.9331 E_impro  =       215.4450 E_vdwl   =     -2200.7191 
E_coul   =    206977.5687 E_long   =   -270401.3663 Press    =      -293.0663 
Volume   =    309770.4861 
---------------- Step      550 ----- CPU =      2.4934 (sec) ----------------
TotEng   =    -24921.6678 KinEng   =     21571.8195 Temp     =       300.8105 
PotEng   =    -46493.4873 E_bond   =      2511.1457 E_angle  =     10900.3055 
E_dihed  =      5206.5632 E_impro  =       223.9241 E_vdwl   =     -1907.5284 
E_coul   =    206965.5759 E_long   =   -270393.4734 Press    =       529.9871 
Volume   =    309712.3171 
---------------- Step      600 ----- CPU =      2.7119 (sec) ----------------
TotEng   =    -25034.9798 KinEng   =     21652.9522 Temp     =       301.9418 
PotEng   =    -46687.9319 E_bond   =      2565.7294 E_angle  =     10839.8787 
E_dihed  =      5230.6342 E_impro  =       210.1607 E_vdwl   =     -2182.8306 
E_coul   =    207044.5751 E_long   =   -270396.0793 Press    =        49.3005 
Volume   =    309852.0030 
Loop time of 2.71197 on 12 procs for 600 steps with 32000 atoms

Performance: 38.231 ns/day, 0.628 hours/ns, 221.242 timesteps/s
97.2% CPU use with 12 MPI tasks x 1 OpenMP threads

MPI task timing breakdown:
Section |  min time  |  avg time  |  max time  |%varavg| %total
---------------------------------------------------------------
Pair    | 0.38856    | 0.47009    | 0.53959    |   6.0 | 17.33
Bond    | 0.5447     | 0.6067     | 0.69256    |   5.8 | 22.37
Kspace  | 0.54662    | 0.62252    | 0.69954    |   5.8 | 22.95
Neigh   | 0.046854   | 0.047226   | 0.047906   |   0.1 |  1.74
Comm    | 0.22461    | 0.23922    | 0.26652    |   3.2 |  8.82
Output  | 0.0008613  | 0.00088934 | 0.0011444  |   0.0 |  0.03
Modify  | 0.61536    | 0.68202    | 0.73757    |   4.5 | 25.15
Other   |            | 0.0433     |            |       |  1.60

Nlocal:        2666.67 ave        2745 max        2619 min
Histogram: 3 1 3 1 1 0 0 1 1 1
Nghost:        13232.3 ave       13345 max       13109 min
Histogram: 1 1 2 0 1 2 0 3 0 2
Neighs:              0 ave           0 max           0 min
Histogram: 12 0 0 0 0 0 0 0 0 0

Total # of neighbors = 0
Ave neighs/atom = 0
Ave special neighs/atom = 7.431875
Neighbor list builds = 66
Dangerous builds = 0


---------------------------------------------------------------------
      Device Time Info (average): 
---------------------------------------------------------------------
Data Transfer:   0.0238 s.
Neighbor copy:   0.0436 s.
Neighbor build:  0.1337 s.
Force calc:      0.4686 s.
Device Overhead: 0.2165 s.
Average split:   1.0000.
Lanes / atom:    8.
Vector width:    32.
Max Mem / Proc:  13.60 MB.
CPU Neighbor:    0.0254 s.
CPU Cast/Pack:   0.1066 s.
CPU Driver_Time: 0.0176 s.
CPU Idle_Time:   0.0095 s.
---------------------------------------------------------------------



---------------------------------------------------------------------
    Device Time Info (average) for kspace: 
---------------------------------------------------------------------
Data Out:        0.0167 s.
Data In:         0.0334 s.
Kernel (map):    0.2399 s.
Kernel (rho):    0.0744 s.
Force interp:    0.1718 s.
Total rho:       0.3310 s.
Total interp:    0.2052 s.
Force copy:      0.0130 s.
Total:           0.5491 s.
CPU Poisson:     0.4288 s.
CPU Data Cast:   0.0076 s.
CPU Idle Time:   0.1611 s.
Max Mem / Proc:  0.88 MB.
---------------------------------------------------------------------

Total wall time: 0:00:17
Intel(R) VTune(TM) Profiler 2022.2.0 collection completed successfully. Use the "aps --report /home/ubuntu/lammps/bench/aps_result_20220610" command to generate textual and HTML reports for the profiling session.
