LAMMPS (7 Jan 2022)
  using 1 OpenMP thread(s) per MPI task
Reading data file ...
  orthogonal box = (-27.5 -38.5 -36.3646) to (27.5 38.5 36.3615)
  2 by 3 by 2 MPI processor grid
  reading atoms ...
  32000 atoms
  reading velocities ...
  32000 velocities
  scanning bonds ...
  4 = max bonds/atom
  scanning angles ...
  8 = max angles/atom
  scanning dihedrals ...
  18 = max dihedrals/atom
  scanning impropers ...
  2 = max impropers/atom
  reading bonds ...
  27723 bonds
  reading angles ...
  40467 angles
  reading dihedrals ...
  56829 dihedrals
  reading impropers ...
  1034 impropers
Finding 1-2 1-3 1-4 neighbors ...
  special bond factors lj:    0        0        0       
  special bond factors coul:  0        0        0       
     4 = max # of 1-2 neighbors
    12 = max # of 1-3 neighbors
    24 = max # of 1-4 neighbors
    26 = max # of special neighbors
  special bonds CPU = 0.005 seconds
  read_data CPU = 0.394 seconds
Finding SHAKE clusters ...
    1617 = # of size 2 clusters
    3633 = # of size 3 clusters
     747 = # of size 4 clusters
    4233 = # of frozen angles
  find clusters CPU = 0.003 seconds

CITE-CITE-CITE-CITE-CITE-CITE-CITE-CITE-CITE-CITE-CITE-CITE-CITE

Your simulation uses code contributions which should be cited:
- GPU package (short-range, long-range and three-body potentials):
The log file lists these citations in BibTeX format.

CITE-CITE-CITE-CITE-CITE-CITE-CITE-CITE-CITE-CITE-CITE-CITE-CITE

PPPM initialization ...
  using 12-bit tables for long-range coulomb (../kspace.cpp:340)
  G vector (1/distance) = 0.29123956
  grid = 45 54 50
  stencil order = 5
  estimated absolute RMS force accuracy = 0.0035990372
  estimated relative force accuracy = 1.0838394e-05
  using single precision MKL FFT
  3d grid and FFT values/proc = 23200 12150

--------------------------------------------------------------------------
- Using acceleration for pppm:
-  with 6 proc(s) per device.
-  Horizontal vector operations: ENABLED
-  Shared memory system: No
--------------------------------------------------------------------------
Device 0: Tesla V100-SXM2-16GB, 80 CUs, 14/16 GB, 1.5 GHZ (Mixed Precision)
Device 1: Tesla V100-SXM2-16GB, 80 CUs, 1.5 GHZ (Mixed Precision)
--------------------------------------------------------------------------

Initializing Device and compiling on process 0...Done.
Initializing Devices 0-1 on core 0...Done.
Initializing Devices 0-1 on core 1...Done.
Initializing Devices 0-1 on core 2...Done.
Initializing Devices 0-1 on core 3...Done.
Initializing Devices 0-1 on core 4...Done.
Initializing Devices 0-1 on core 5...Done.


--------------------------------------------------------------------------
- Using acceleration for lj/charmm/coul/long:
-  with 6 proc(s) per device.
-  Horizontal vector operations: ENABLED
-  Shared memory system: No
--------------------------------------------------------------------------
Device 0: Tesla V100-SXM2-16GB, 80 CUs, 14/16 GB, 1.5 GHZ (Mixed Precision)
Device 1: Tesla V100-SXM2-16GB, 80 CUs, 1.5 GHZ (Mixed Precision)
--------------------------------------------------------------------------

Initializing Device and compiling on process 0...Done.
Initializing Devices 0-1 on core 0...Done.
Initializing Devices 0-1 on core 1...Done.
Initializing Devices 0-1 on core 2...Done.
Initializing Devices 0-1 on core 3...Done.
Initializing Devices 0-1 on core 4...Done.
Initializing Devices 0-1 on core 5...Done.

  generated 2278 of 2278 mixed pair_coeff terms from arithmetic mixing rule
Setting up Verlet run ...
  Unit style    : real
  Current step  : 0
  Time step     : 2
Per MPI rank memory allocation (min/avg/max) = 19.33 | 19.45 | 19.58 Mbytes
---------------- Step        0 ----- CPU =      0.0000 (sec) ----------------
TotEng   =    -25358.7424 KinEng   =     21444.8313 Temp     =       299.0397 
PotEng   =    -46803.5737 E_bond   =      2537.9940 E_angle  =     10921.3742 
E_dihed  =      5211.7865 E_impro  =       213.5116 E_vdwl   =     -2307.8635 
E_coul   =    252888.7510 E_long   =   -316269.1274 Press    =      -152.7826 
Volume   =    307995.0335 
---------------- Step       50 ----- CPU =      0.4082 (sec) ----------------
TotEng   =    -25333.3276 KinEng   =     21500.9260 Temp     =       299.8219 
PotEng   =    -46834.2536 E_bond   =      2471.6404 E_angle  =     10836.6046 
E_dihed  =      5239.4719 E_impro  =       227.1338 E_vdwl   =     -1992.5856 
E_coul   =    252663.4874 E_long   =   -316280.0061 Press    =       234.9354 
Volume   =    308031.0998 
---------------- Step      100 ----- CPU =      0.8017 (sec) ----------------
TotEng   =    -25289.9447 KinEng   =     21588.3538 Temp     =       301.0410 
PotEng   =    -46878.2985 E_bond   =      2567.8200 E_angle  =     10781.4120 
E_dihed  =      5198.5506 E_impro  =       216.7999 E_vdwl   =     -1900.6533 
E_coul   =    252531.4807 E_long   =   -316273.7084 Press    =        12.3267 
Volume   =    308132.3435 
---------------- Step      150 ----- CPU =      1.1950 (sec) ----------------
TotEng   =    -25257.5780 KinEng   =     21552.3230 Temp     =       300.5386 
PotEng   =    -46809.9011 E_bond   =      2555.7222 E_angle  =     10856.1433 
E_dihed  =      5264.1224 E_impro  =       203.0458 E_vdwl   =     -2061.2411 
E_coul   =    252630.8213 E_long   =   -316258.5149 Press    =       248.1127 
Volume   =    308514.1746 
---------------- Step      200 ----- CPU =      1.5779 (sec) ----------------
TotEng   =    -25061.4085 KinEng   =     21489.4073 Temp     =       299.6613 
PotEng   =    -46550.8157 E_bond   =      2492.2102 E_angle  =     11073.3810 
E_dihed  =      5224.5390 E_impro  =       232.2837 E_vdwl   =     -2120.4227 
E_coul   =    252827.5957 E_long   =   -316280.4027 Press    =        89.8930 
Volume   =    308993.3837 
---------------- Step      250 ----- CPU =      1.9756 (sec) ----------------
TotEng   =    -24880.8316 KinEng   =     21546.9024 Temp     =       300.4630 
PotEng   =    -46427.7340 E_bond   =      2555.7978 E_angle  =     11112.1686 
E_dihed  =      5253.2157 E_impro  =       221.0515 E_vdwl   =     -2193.3364 
E_coul   =    252898.8088 E_long   =   -316275.4400 Press    =      -166.8807 
Volume   =    309415.6425 
---------------- Step      300 ----- CPU =      2.3620 (sec) ----------------
TotEng   =    -24878.0174 KinEng   =     21558.5280 Temp     =       300.6251 
PotEng   =    -46436.5454 E_bond   =      2563.5823 E_angle  =     10922.1666 
E_dihed  =      5229.7266 E_impro  =       225.2228 E_vdwl   =     -2132.9246 
E_coul   =    253014.0951 E_long   =   -316258.4142 Press    =      -363.8681 
Volume   =    309775.4122 
---------------- Step      350 ----- CPU =      2.7553 (sec) ----------------
TotEng   =    -25045.6360 KinEng   =     21548.8400 Temp     =       300.4900 
PotEng   =    -46594.4760 E_bond   =      2592.6226 E_angle  =     11017.5594 
E_dihed  =      5221.9145 E_impro  =       207.0810 E_vdwl   =     -2213.8440 
E_coul   =    252841.7991 E_long   =   -316261.6086 Press    =      -437.9054 
Volume   =    310055.8613 
---------------- Step      400 ----- CPU =      3.1432 (sec) ----------------
TotEng   =    -25232.1025 KinEng   =     21445.6091 Temp     =       299.0505 
PotEng   =    -46677.7116 E_bond   =      2540.2518 E_angle  =     11001.6635 
E_dihed  =      5171.5591 E_impro  =       217.1681 E_vdwl   =     -2278.8241 
E_coul   =    252941.6716 E_long   =   -316271.2016 Press    =       122.4522 
Volume   =    310140.0657 
---------------- Step      450 ----- CPU =      3.5369 (sec) ----------------
TotEng   =    -25269.7899 KinEng   =     21445.5131 Temp     =       299.0492 
PotEng   =    -46715.3029 E_bond   =      2521.3828 E_angle  =     10879.2661 
E_dihed  =      5278.8008 E_impro  =       221.3015 E_vdwl   =     -2203.2651 
E_coul   =    252858.7218 E_long   =   -316271.5108 Press    =       239.1907 
Volume   =    310079.6302 
---------------- Step      500 ----- CPU =      3.9292 (sec) ----------------
TotEng   =    -25085.9409 KinEng   =     21467.6302 Temp     =       299.3576 
PotEng   =    -46553.5710 E_bond   =      2603.8928 E_angle  =     10943.9831 
E_dihed  =      5226.5685 E_impro  =       211.3834 E_vdwl   =     -2182.9469 
E_coul   =    252900.6721 E_long   =   -316257.1240 Press    =      -288.2902 
Volume   =    309935.6539 
---------------- Step      550 ----- CPU =      4.3170 (sec) ----------------
TotEng   =    -24814.0344 KinEng   =     21678.7577 Temp     =       302.3017 
PotEng   =    -46492.7920 E_bond   =      2539.1610 E_angle  =     10941.6861 
E_dihed  =      5220.2150 E_impro  =       239.0806 E_vdwl   =     -2230.8154 
E_coul   =    253058.9511 E_long   =   -316261.0704 Press    =        92.1594 
Volume   =    309808.3153 
---------------- Step      600 ----- CPU =      4.7022 (sec) ----------------
TotEng   =    -24661.7701 KinEng   =     21611.3776 Temp     =       301.3621 
PotEng   =    -46273.1477 E_bond   =      2583.8268 E_angle  =     11059.5423 
E_dihed  =      5267.8929 E_impro  =       232.7424 E_vdwl   =     -2198.6475 
E_coul   =    253046.1888 E_long   =   -316264.6934 Press    =      -170.7540 
Volume   =    309683.2115 
Loop time of 4.70225 on 12 procs for 600 steps with 32000 atoms

Performance: 22.049 ns/day, 1.088 hours/ns, 127.598 timesteps/s
97.2% CPU use with 12 MPI tasks x 1 OpenMP threads

MPI task timing breakdown:
Section |  min time  |  avg time  |  max time  |%varavg| %total
---------------------------------------------------------------
Pair    | 0.52239    | 0.59168    | 0.65724    |   5.0 | 12.58
Bond    | 0.58523    | 0.62865    | 0.74789    |   5.4 | 13.37
Kspace  | 1.458      | 1.5706     | 1.6241     |   3.4 | 33.40
Neigh   | 0.05223    | 0.052862   | 0.0535     |   0.2 |  1.12
Comm    | 0.23135    | 0.30647    | 0.32748    |   5.9 |  6.52
Output  | 0.00096113 | 0.00099162 | 0.0012634  |   0.0 |  0.02
Modify  | 1.3465     | 1.4281     | 1.6034     |   6.5 | 30.37
Other   |            | 0.1229     |            |       |  2.61

Nlocal:        2666.67 ave        2728 max        2615 min
Histogram: 2 1 2 1 2 0 0 1 2 1
Nghost:        13192.8 ave       13264 max       13103 min
Histogram: 1 2 0 1 0 2 1 2 0 3
Neighs:              0 ave           0 max           0 min
Histogram: 12 0 0 0 0 0 0 0 0 0

Total # of neighbors = 0
Ave neighs/atom = 0
Ave special neighs/atom = 7.431875
Neighbor list builds = 65
Dangerous builds = 0


---------------------------------------------------------------------
      Device Time Info (average): 
---------------------------------------------------------------------
Data Transfer:   0.0216 s.
Neighbor copy:   0.0644 s.
Neighbor build:  0.2104 s.
Force calc:      0.7102 s.
Device Overhead: 0.3901 s.
Average split:   1.0000.
Lanes / atom:    8.
Vector width:    32.
Max Mem / Proc:  13.19 MB.
CPU Neighbor:    0.0261 s.
CPU Cast/Pack:   0.0687 s.
CPU Driver_Time: 0.0182 s.
CPU Idle_Time:   0.0032 s.
---------------------------------------------------------------------



---------------------------------------------------------------------
    Device Time Info (average) for kspace: 
---------------------------------------------------------------------
Data Out:        0.0180 s.
Data In:         0.1526 s.
Kernel (map):    0.4336 s.
Kernel (rho):    0.0431 s.
Force interp:    0.2046 s.
Total rho:       0.4946 s.
Total interp:    0.3572 s.
Force copy:      0.0173 s.
Total:           0.8692 s.
CPU Poisson:     1.1642 s.
CPU Data Cast:   0.0071 s.
CPU Idle Time:   0.3631 s.
Max Mem / Proc:  3.02 MB.
---------------------------------------------------------------------

Total wall time: 0:00:19
Intel(R) VTune(TM) Profiler 2022.2.0 collection completed successfully. Use the "aps --report /home/ubuntu/lammps/bench/aps_result_20220531" command to generate textual and HTML reports for the profiling session.
