LAMMPS (7 Jan 2022)
  using 1 OpenMP thread(s) per MPI task
New timer settings: style=full  mode=nosync  timeout=off
Reading data file ...
  orthogonal box = (-27.5 -38.5 -36.3646) to (27.5 38.5 36.3615)
  2 by 3 by 2 MPI processor grid
  reading atoms ...
  32000 atoms
  reading velocities ...
  32000 velocities
  scanning bonds ...
  4 = max bonds/atom
  scanning angles ...
  8 = max angles/atom
  scanning dihedrals ...
  18 = max dihedrals/atom
  scanning impropers ...
  2 = max impropers/atom
  reading bonds ...
  27723 bonds
  reading angles ...
  40467 angles
  reading dihedrals ...
  56829 dihedrals
  reading impropers ...
  1034 impropers
Finding 1-2 1-3 1-4 neighbors ...
  special bond factors lj:    0        0        0       
  special bond factors coul:  0        0        0       
     4 = max # of 1-2 neighbors
    12 = max # of 1-3 neighbors
    24 = max # of 1-4 neighbors
    26 = max # of special neighbors
  special bonds CPU = 0.005 seconds
  read_data CPU = 0.329 seconds
Finding SHAKE clusters ...
    1617 = # of size 2 clusters
    3633 = # of size 3 clusters
     747 = # of size 4 clusters
    4233 = # of frozen angles
  find clusters CPU = 0.003 seconds

CITE-CITE-CITE-CITE-CITE-CITE-CITE-CITE-CITE-CITE-CITE-CITE-CITE

Your simulation uses code contributions which should be cited:
- GPU package (short-range, long-range and three-body potentials):
The log file lists these citations in BibTeX format.

CITE-CITE-CITE-CITE-CITE-CITE-CITE-CITE-CITE-CITE-CITE-CITE-CITE

PPPM initialization ...
  using 12-bit tables for long-range coulomb (../kspace.cpp:340)
  G vector (1/distance) = 0.24883488
  grid = 25 32 32
  stencil order = 5
  estimated absolute RMS force accuracy = 0.035547797
  estimated relative force accuracy = 0.00010705113
  using single precision MKL FFT
  3d grid and FFT values/proc = 6426 2400

--------------------------------------------------------------------------
- Using acceleration for pppm:
-  with 3 proc(s) per device.
-  Horizontal vector operations: ENABLED
-  Shared memory system: No
--------------------------------------------------------------------------
Device 0: Tesla V100-SXM2-16GB, 80 CUs, 15/16 GB, 1.5 GHZ (Mixed Precision)
Device 1: Tesla V100-SXM2-16GB, 80 CUs, 1.5 GHZ (Mixed Precision)
Device 2: Tesla V100-SXM2-16GB, 80 CUs, 1.5 GHZ (Mixed Precision)
Device 3: Tesla V100-SXM2-16GB, 80 CUs, 1.5 GHZ (Mixed Precision)
--------------------------------------------------------------------------

Initializing Device and compiling on process 0...Done.
Initializing Devices 0-3 on core 0...Done.
Initializing Devices 0-3 on core 1...Done.
Initializing Devices 0-3 on core 2...Done.


--------------------------------------------------------------------------
- Using acceleration for lj/charmm/coul/long:
-  with 3 proc(s) per device.
-  Horizontal vector operations: ENABLED
-  Shared memory system: No
--------------------------------------------------------------------------
Device 0: Tesla V100-SXM2-16GB, 80 CUs, 15/16 GB, 1.5 GHZ (Mixed Precision)
Device 1: Tesla V100-SXM2-16GB, 80 CUs, 1.5 GHZ (Mixed Precision)
Device 2: Tesla V100-SXM2-16GB, 80 CUs, 1.5 GHZ (Mixed Precision)
Device 3: Tesla V100-SXM2-16GB, 80 CUs, 1.5 GHZ (Mixed Precision)
--------------------------------------------------------------------------

Initializing Device and compiling on process 0...Done.
Initializing Devices 0-3 on core 0...Done.
Initializing Devices 0-3 on core 1...Done.
Initializing Devices 0-3 on core 2...Done.

  generated 2278 of 2278 mixed pair_coeff terms from arithmetic mixing rule
Setting up Verlet run ...
  Unit style    : real
  Current step  : 0
  Time step     : 2
Per MPI rank memory allocation (min/avg/max) = 18.46 | 18.55 | 18.69 Mbytes
---------------- Step        0 ----- CPU =      0.0000 (sec) ----------------
TotEng   =    -25356.2687 KinEng   =     21444.8313 Temp     =       299.0397 
PotEng   =    -46801.1000 E_bond   =      2537.9940 E_angle  =     10921.3742 
E_dihed  =      5211.7865 E_impro  =       213.5116 E_vdwl   =     -2307.8635 
E_coul   =    207025.8394 E_long   =   -270403.7421 Press    =      -149.3321 
Volume   =    307995.0335 
---------------- Step       50 ----- CPU =      0.2058 (sec) ----------------
TotEng   =    -25330.0794 KinEng   =     21500.9992 Temp     =       299.8229 
PotEng   =    -46831.0786 E_bond   =      2471.7037 E_angle  =     10836.5109 
E_dihed  =      5239.6320 E_impro  =       227.1218 E_vdwl   =     -1993.2899 
E_coul   =    206797.6444 E_long   =   -270410.4014 Press    =       237.6572 
Volume   =    308031.6776 
---------------- Step      100 ----- CPU =      0.4101 (sec) ----------------
TotEng   =    -25290.7900 KinEng   =     21591.9053 Temp     =       301.0906 
PotEng   =    -46882.6954 E_bond   =      2567.9809 E_angle  =     10781.9578 
E_dihed  =      5198.7496 E_impro  =       216.7864 E_vdwl   =     -1902.6688 
E_coul   =    206659.4808 E_long   =   -270404.9820 Press    =         6.7239 
Volume   =    308134.2326 
---------------- Step      150 ----- CPU =      0.6068 (sec) ----------------
TotEng   =    -25258.0983 KinEng   =     21529.6604 Temp     =       300.2226 
PotEng   =    -46787.7586 E_bond   =      2556.3450 E_angle  =     10852.7810 
E_dihed  =      5265.2330 E_impro  =       203.0688 E_vdwl   =     -2066.1516 
E_coul   =    206797.4502 E_long   =   -270396.4850 Press    =       251.4860 
Volume   =    308515.2423 
---------------- Step      200 ----- CPU =      0.8186 (sec) ----------------
TotEng   =    -25078.9483 KinEng   =     21571.2098 Temp     =       300.8020 
PotEng   =    -46650.1581 E_bond   =      2488.6954 E_angle  =     11073.4437 
E_dihed  =      5221.7510 E_impro  =       232.8568 E_vdwl   =     -2167.6190 
E_coul   =    206902.8298 E_long   =   -270402.1158 Press    =        20.7323 
Volume   =    308997.5526 
---------------- Step      250 ----- CPU =      1.0317 (sec) ----------------
TotEng   =    -24944.3322 KinEng   =     21547.6970 Temp     =       300.4741 
PotEng   =    -46492.0291 E_bond   =      2542.5527 E_angle  =     11105.4420 
E_dihed  =      5239.6514 E_impro  =       212.3507 E_vdwl   =     -2168.8546 
E_coul   =    206988.9915 E_long   =   -270412.1628 Press    =      -169.9559 
Volume   =    309388.1452 
---------------- Step      300 ----- CPU =      1.2279 (sec) ----------------
TotEng   =    -25000.9369 KinEng   =     21496.8975 Temp     =       299.7657 
PotEng   =    -46497.8343 E_bond   =      2558.0920 E_angle  =     10923.0414 
E_dihed  =      5211.1789 E_impro  =       222.2943 E_vdwl   =     -2221.6665 
E_coul   =    207195.9747 E_long   =   -270386.7491 Press    =      -373.9182 
Volume   =    309663.3685 
---------------- Step      350 ----- CPU =      1.4295 (sec) ----------------
TotEng   =    -25130.9922 KinEng   =     21468.1777 Temp     =       299.3652 
PotEng   =    -46599.1699 E_bond   =      2580.1687 E_angle  =     10952.0125 
E_dihed  =      5250.5155 E_impro  =       212.6623 E_vdwl   =     -2165.5358 
E_coul   =    206972.1811 E_long   =   -270401.1742 Press    =      -333.1253 
Volume   =    309799.1357 
---------------- Step      400 ----- CPU =      1.6273 (sec) ----------------
TotEng   =    -25212.9078 KinEng   =     21434.8750 Temp     =       298.9008 
PotEng   =    -46647.7827 E_bond   =      2524.9410 E_angle  =     10965.5756 
E_dihed  =      5206.8152 E_impro  =       213.0606 E_vdwl   =     -2189.3916 
E_coul   =    207046.1213 E_long   =   -270414.9048 Press    =       183.2135 
Volume   =    309812.9272 
---------------- Step      450 ----- CPU =      1.8277 (sec) ----------------
TotEng   =    -25174.8447 KinEng   =     21490.7040 Temp     =       299.6794 
PotEng   =    -46665.5487 E_bond   =      2502.2821 E_angle  =     10954.9645 
E_dihed  =      5241.1251 E_impro  =       224.7003 E_vdwl   =     -2256.5064 
E_coul   =    207055.9313 E_long   =   -270388.0455 Press    =       170.6129 
Volume   =    309769.8686 
---------------- Step      500 ----- CPU =      2.0248 (sec) ----------------
TotEng   =    -25008.0517 KinEng   =     21593.4995 Temp     =       301.1128 
PotEng   =    -46601.5512 E_bond   =      2565.7616 E_angle  =     10937.4740 
E_dihed  =      5263.0605 E_impro  =       216.4152 E_vdwl   =     -2104.5289 
E_coul   =    206919.0504 E_long   =   -270398.7839 Press    =      -207.6319 
Volume   =    309755.0115 
---------------- Step      550 ----- CPU =      2.2336 (sec) ----------------
TotEng   =    -24964.3163 KinEng   =     21642.4474 Temp     =       301.7954 
PotEng   =    -46606.7637 E_bond   =      2515.6833 E_angle  =     10900.2538 
E_dihed  =      5204.2445 E_impro  =       225.9001 E_vdwl   =     -2024.4943 
E_coul   =    206967.0721 E_long   =   -270395.4232 Press    =       456.3256 
Volume   =    309716.2409 
---------------- Step      600 ----- CPU =      2.4461 (sec) ----------------
TotEng   =    -25047.5410 KinEng   =     21578.7695 Temp     =       300.9074 
PotEng   =    -46626.3105 E_bond   =      2566.1685 E_angle  =     10858.0107 
E_dihed  =      5252.2400 E_impro  =       210.6482 E_vdwl   =     -2257.2305 
E_coul   =    207126.4320 E_long   =   -270382.5794 Press    =        32.9550 
Volume   =    309845.1183 
Loop time of 2.44623 on 12 procs for 600 steps with 32000 atoms

Performance: 42.384 ns/day, 0.566 hours/ns, 245.276 timesteps/s
96.6% CPU use with 12 MPI tasks x 1 OpenMP threads

MPI task timing breakdown:
Section |  min time  |  avg time  |  max time  |%varavg|  %CPU | %total
-----------------------------------------------------------------------
Pair    | 0.27078    | 0.31313    | 0.36368    |   4.7 |  96.3 | 12.80
Bond    | 0.47323    | 0.52105    | 0.59516    |   5.6 |  97.1 | 21.30
Kspace  | 0.54741    | 0.61143    | 0.67043    |   5.4 |  96.9 | 24.99
Neigh   | 0.049996   | 0.050374   | 0.050792   |   0.1 |  92.3 |  2.06
Comm    | 0.22663    | 0.24054    | 0.26657    |   3.5 |  95.5 |  9.83
Output  | 0.00092515 | 0.00095888 | 0.0012192  |   0.0 | 100.0 |  0.04
Modify  | 0.58375    | 0.66649    | 0.72173    |   6.1 |  96.6 | 27.25
Other   |            | 0.04225    |            |       |       |  1.73

Nlocal:        2666.67 ave        2741 max        2602 min
Histogram: 1 2 3 0 1 1 1 0 2 1
Nghost:        13251.6 ave       13340 max       13164 min
Histogram: 2 1 1 1 1 0 2 2 0 2
Neighs:              0 ave           0 max           0 min
Histogram: 12 0 0 0 0 0 0 0 0 0

Total # of neighbors = 0
Ave neighs/atom = 0
Ave special neighs/atom = 7.431875
Neighbor list builds = 66
Dangerous builds = 0


---------------------------------------------------------------------
      Device Time Info (average): 
---------------------------------------------------------------------
Data Transfer:   0.0186 s.
Neighbor copy:   0.0369 s.
Neighbor build:  0.1206 s.
Force calc:      0.3758 s.
Device Overhead: 0.1962 s.
Average split:   1.0000.
Lanes / atom:    8.
Vector width:    32.
Max Mem / Proc:  13.19 MB.
CPU Neighbor:    0.0235 s.
CPU Cast/Pack:   0.0712 s.
CPU Driver_Time: 0.0110 s.
CPU Idle_Time:   0.0020 s.
---------------------------------------------------------------------



---------------------------------------------------------------------
    Device Time Info (average) for kspace: 
---------------------------------------------------------------------
Data Out:        0.0087 s.
Data In:         0.0426 s.
Kernel (map):    0.2133 s.
Kernel (rho):    0.0689 s.
Force interp:    0.1141 s.
Total rho:       0.2908 s.
Total interp:    0.1566 s.
Force copy:      0.0121 s.
Total:           0.4596 s.
CPU Poisson:     0.4452 s.
CPU Data Cast:   0.0075 s.
CPU Idle Time:   0.1411 s.
Max Mem / Proc:  0.88 MB.
---------------------------------------------------------------------

Total wall time: 0:00:09
Intel(R) VTune(TM) Profiler 2022.2.0 collection completed successfully. Use the "aps --report /home/ubuntu/lammps/bench/aps_result_20220420" command to generate textual and HTML reports for the profiling session.
