LAMMPS (7 Jan 2022)
  using 1 OpenMP thread(s) per MPI task
Reading data file ...
  orthogonal box = (-27.5 -38.5 -36.3646) to (27.5 38.5 36.3615)
  2 by 4 by 4 MPI processor grid
  reading atoms ...
  32000 atoms
  reading velocities ...
  32000 velocities
  scanning bonds ...
  4 = max bonds/atom
  scanning angles ...
  8 = max angles/atom
  scanning dihedrals ...
  18 = max dihedrals/atom
  scanning impropers ...
  2 = max impropers/atom
  reading bonds ...
  27723 bonds
  reading angles ...
  40467 angles
  reading dihedrals ...
  56829 dihedrals
  reading impropers ...
  1034 impropers
Finding 1-2 1-3 1-4 neighbors ...
  special bond factors lj:    0        0        0       
  special bond factors coul:  0        0        0       
     4 = max # of 1-2 neighbors
    12 = max # of 1-3 neighbors
    24 = max # of 1-4 neighbors
    26 = max # of special neighbors
  special bonds CPU = 0.006 seconds
  read_data CPU = 0.465 seconds
Replicating atoms ...
  orthogonal box = (-27.5 -38.5 -36.3646) to (82.5 115.5 109.0876)
  2 by 4 by 4 MPI processor grid
  256000 atoms
  221784 bonds
  323736 angles
  454632 dihedrals
  8272 impropers
Finding 1-2 1-3 1-4 neighbors ...
  special bond factors lj:    0        0        0       
  special bond factors coul:  0        0        0       
     4 = max # of 1-2 neighbors
    12 = max # of 1-3 neighbors
    24 = max # of 1-4 neighbors
    26 = max # of special neighbors
  special bonds CPU = 0.029 seconds
  replicate CPU = 0.151 seconds
Finding SHAKE clusters ...
   12936 = # of size 2 clusters
   29064 = # of size 3 clusters
    5976 = # of size 4 clusters
   33864 = # of frozen angles
  find clusters CPU = 0.014 seconds

CITE-CITE-CITE-CITE-CITE-CITE-CITE-CITE-CITE-CITE-CITE-CITE-CITE

Your simulation uses code contributions which should be cited:
- GPU package (short-range, long-range and three-body potentials):
The log file lists these citations in BibTeX format.

CITE-CITE-CITE-CITE-CITE-CITE-CITE-CITE-CITE-CITE-CITE-CITE-CITE

PPPM initialization ...
  using 12-bit tables for long-range coulomb (../kspace.cpp:340)
  G vector (1/distance) = 0.28895511
  grid = 80 108 100
  stencil order = 5
  estimated absolute RMS force accuracy = 0.0041094504
  estimated relative force accuracy = 1.2375488e-05
  using single precision MKL FFT
  3d grid and FFT values/proc = 51136 34560

--------------------------------------------------------------------------
- Using acceleration for pppm:
-  with 8 proc(s) per device.
-  Horizontal vector operations: ENABLED
-  Shared memory system: No
--------------------------------------------------------------------------
Device 0: Tesla V100-SXM2-16GB, 80 CUs, 13/16 GB, 1.5 GHZ (Mixed Precision)
Device 1: Tesla V100-SXM2-16GB, 80 CUs, 1.5 GHZ (Mixed Precision)
Device 2: Tesla V100-SXM2-16GB, 80 CUs, 1.5 GHZ (Mixed Precision)
Device 3: Tesla V100-SXM2-16GB, 80 CUs, 1.5 GHZ (Mixed Precision)
--------------------------------------------------------------------------

Initializing Device and compiling on process 0...Done.
Initializing Devices 0-3 on core 0...Done.
Initializing Devices 0-3 on core 1...Done.
Initializing Devices 0-3 on core 2...Done.
Initializing Devices 0-3 on core 3...Done.
Initializing Devices 0-3 on core 4...Done.
Initializing Devices 0-3 on core 5...Done.
Initializing Devices 0-3 on core 6...Done.
Initializing Devices 0-3 on core 7...Done.


--------------------------------------------------------------------------
- Using acceleration for lj/charmm/coul/long:
-  with 8 proc(s) per device.
-  Horizontal vector operations: ENABLED
-  Shared memory system: No
--------------------------------------------------------------------------
Device 0: Tesla V100-SXM2-16GB, 80 CUs, 13/16 GB, 1.5 GHZ (Mixed Precision)
Device 1: Tesla V100-SXM2-16GB, 80 CUs, 1.5 GHZ (Mixed Precision)
Device 2: Tesla V100-SXM2-16GB, 80 CUs, 1.5 GHZ (Mixed Precision)
Device 3: Tesla V100-SXM2-16GB, 80 CUs, 1.5 GHZ (Mixed Precision)
--------------------------------------------------------------------------

Initializing Device and compiling on process 0...Done.
Initializing Devices 0-3 on core 0...Done.
Initializing Devices 0-3 on core 1...Done.
Initializing Devices 0-3 on core 2...Done.
Initializing Devices 0-3 on core 3...Done.
Initializing Devices 0-3 on core 4...Done.
Initializing Devices 0-3 on core 5...Done.
Initializing Devices 0-3 on core 6...Done.
Initializing Devices 0-3 on core 7...Done.

  generated 2278 of 2278 mixed pair_coeff terms from arithmetic mixing rule
Setting up Verlet run ...
  Unit style    : real
  Current step  : 0
  Time step     : 2
Per MPI rank memory allocation (min/avg/max) = 39.89 | 39.97 | 40.46 Mbytes
---------------- Step        0 ----- CPU =      0.0000 (sec) ----------------
TotEng   =   -202869.6476 KinEng   =    171558.6503 Temp     =       299.0288 
PotEng   =   -374428.2979 E_bond   =     20303.9521 E_angle  =     87370.9937 
E_dihed  =     41694.2920 E_impro  =      1708.0927 E_vdwl   =    -18462.9051 
E_coul   =   2003375.5184 E_long   =  -2510418.2417 Press    =      -152.7299 
Volume   =   2463960.2680 
---------------- Step       50 ----- CPU =      1.0987 (sec) ----------------
TotEng   =   -202660.2569 KinEng   =    172011.0599 Temp     =       299.8174 
PotEng   =   -374671.3168 E_bond   =     19773.4053 E_angle  =     86693.8001 
E_dihed  =     41915.9108 E_impro  =      1817.0822 E_vdwl   =    -15940.1755 
E_coul   =   2001571.7359 E_long   =  -2510503.0756 Press    =       235.0635 
Volume   =   2464248.9087 
---------------- Step      100 ----- CPU =      2.1909 (sec) ----------------
TotEng   =   -202302.8458 KinEng   =    172714.0875 Temp     =       301.0427 
PotEng   =   -375016.9333 E_bond   =     20543.3027 E_angle  =     86254.4010 
E_dihed  =     41589.1724 E_impro  =      1734.4904 E_vdwl   =    -15204.4778 
E_coul   =   2000519.3380 E_long   =  -2510453.1601 Press    =        12.6024 
Volume   =   2465059.5963 
Loop time of 2.19105 on 32 procs for 100 steps with 256000 atoms

Performance: 7.887 ns/day, 3.043 hours/ns, 45.640 timesteps/s
97.5% CPU use with 32 MPI tasks x 1 OpenMP threads

MPI task timing breakdown:
Section |  min time  |  avg time  |  max time  |%varavg| %total
---------------------------------------------------------------
Pair    | 0.21646    | 0.26486    | 0.3225     |   4.6 | 12.09
Bond    | 0.27605    | 0.29292    | 0.32067    |   2.2 | 13.37
Kspace  | 0.60611    | 0.6466     | 0.69774    |   3.1 | 29.51
Neigh   | 0.048315   | 0.049187   | 0.049681   |   0.1 |  2.24
Comm    | 0.11752    | 0.15692    | 0.18428    |   5.3 |  7.16
Output  | 0.00033412 | 0.00033998 | 0.00038847 |   0.0 |  0.02
Modify  | 0.63864    | 0.70046    | 0.80934    |   4.5 | 31.97
Other   |            | 0.07977    |            |       |  3.64

Nlocal:           8000 ave        8144 max        7935 min
Histogram: 8 16 0 0 0 0 0 0 0 8
Nghost:          22728 ave       22766 max       22688 min
Histogram: 8 0 0 0 8 8 0 0 0 8
Neighs:              0 ave           0 max           0 min
Histogram: 32 0 0 0 0 0 0 0 0 0

Total # of neighbors = 0
Ave neighs/atom = 0
Ave special neighs/atom = 7.431875
Neighbor list builds = 11
Dangerous builds = 0


---------------------------------------------------------------------
      Device Time Info (average): 
---------------------------------------------------------------------
Data Transfer:   0.0070 s.
Neighbor copy:   0.0373 s.
Neighbor build:  0.0557 s.
Force calc:      0.1672 s.
Device Overhead: 0.0880 s.
Average split:   1.0000.
Lanes / atom:    8.
Vector width:    32.
Max Mem / Proc:  38.51 MB.
CPU Neighbor:    0.0423 s.
CPU Cast/Pack:   0.0328 s.
CPU Driver_Time: 0.0031 s.
CPU Idle_Time:   0.0011 s.
---------------------------------------------------------------------



---------------------------------------------------------------------
    Device Time Info (average) for kspace: 
---------------------------------------------------------------------
Data Out:        0.0059 s.
Data In:         0.1176 s.
Kernel (map):    0.1149 s.
Kernel (rho):    0.0143 s.
Force interp:    0.0707 s.
Total rho:       0.1351 s.
Total interp:    0.1883 s.
Force copy:      0.0095 s.
Total:           0.3330 s.
CPU Poisson:     0.5663 s.
CPU Data Cast:   0.0041 s.
CPU Idle Time:   0.0791 s.
Max Mem / Proc:  7.44 MB.
---------------------------------------------------------------------

Total wall time: 0:00:43
Intel(R) VTune(TM) Profiler 2022.2.0 collection completed successfully. Use the "aps --report /home/ubuntu/lammps/bench/aps_result_20220531" command to generate textual and HTML reports for the profiling session.
