LAMMPS (7 Jan 2022)
  using 1 OpenMP thread(s) per MPI task
New timer settings: style=full  mode=nosync  timeout=off
Reading data file ...
  orthogonal box = (-27.5 -38.5 -36.3646) to (27.5 38.5 36.3615)
  3 by 4 by 3 MPI processor grid
  reading atoms ...
  32000 atoms
  reading velocities ...
  32000 velocities
  scanning bonds ...
  4 = max bonds/atom
  scanning angles ...
  8 = max angles/atom
  scanning dihedrals ...
  18 = max dihedrals/atom
  scanning impropers ...
  2 = max impropers/atom
  reading bonds ...
  27723 bonds
  reading angles ...
  40467 angles
  reading dihedrals ...
  56829 dihedrals
  reading impropers ...
  1034 impropers
Finding 1-2 1-3 1-4 neighbors ...
  special bond factors lj:    0        0        0       
  special bond factors coul:  0        0        0       
     4 = max # of 1-2 neighbors
    12 = max # of 1-3 neighbors
    24 = max # of 1-4 neighbors
    26 = max # of special neighbors
  special bonds CPU = 0.007 seconds
  read_data CPU = 0.332 seconds
Replicating atoms ...
  orthogonal box = (-27.5 -38.5 -36.3646) to (137.5 192.5 181.8137)
  3 by 4 by 3 MPI processor grid
  864000 atoms
  748521 bonds
  1092609 angles
  1534383 dihedrals
  27918 impropers
Finding 1-2 1-3 1-4 neighbors ...
  special bond factors lj:    0        0        0       
  special bond factors coul:  0        0        0       
     4 = max # of 1-2 neighbors
    12 = max # of 1-3 neighbors
    24 = max # of 1-4 neighbors
    26 = max # of special neighbors
  special bonds CPU = 0.046 seconds
  replicate CPU = 0.108 seconds
Finding SHAKE clusters ...
   43659 = # of size 2 clusters
   98091 = # of size 3 clusters
   20169 = # of size 4 clusters
  114291 = # of frozen angles
  find clusters CPU = 0.022 seconds

CITE-CITE-CITE-CITE-CITE-CITE-CITE-CITE-CITE-CITE-CITE-CITE-CITE

Your simulation uses code contributions which should be cited:
- GPU package (short-range, long-range and three-body potentials):
The log file lists these citations in BibTeX format.

CITE-CITE-CITE-CITE-CITE-CITE-CITE-CITE-CITE-CITE-CITE-CITE-CITE

PPPM initialization ...
  using 12-bit tables for long-range coulomb (../kspace.cpp:340)
  G vector (1/distance) = 0.24587501
  grid = 72 96 90
  stencil order = 5
  estimated absolute RMS force accuracy = 0.041154918
  estimated relative force accuracy = 0.00012393681
  using single precision MKL FFT
  3d grid and FFT values/proc = 29435 20736

--------------------------------------------------------------------------
- Using acceleration for pppm:
-  with 9 proc(s) per device.
-  Horizontal vector operations: ENABLED
-  Shared memory system: No
--------------------------------------------------------------------------
Device 0: Tesla V100-SXM2-16GB, 80 CUs, 13/16 GB, 1.5 GHZ (Mixed Precision)
Device 1: Tesla V100-SXM2-16GB, 80 CUs, 1.5 GHZ (Mixed Precision)
Device 2: Tesla V100-SXM2-16GB, 80 CUs, 1.5 GHZ (Mixed Precision)
Device 3: Tesla V100-SXM2-16GB, 80 CUs, 1.5 GHZ (Mixed Precision)
--------------------------------------------------------------------------

Initializing Device and compiling on process 0...Done.
Initializing Devices 0-3 on core 0...Done.
Initializing Devices 0-3 on core 1...Done.
Initializing Devices 0-3 on core 2...Done.
Initializing Devices 0-3 on core 3...Done.
Initializing Devices 0-3 on core 4...Done.
Initializing Devices 0-3 on core 5...Done.
Initializing Devices 0-3 on core 6...Done.
Initializing Devices 0-3 on core 7...Done.
Initializing Devices 0-3 on core 8...Done.


--------------------------------------------------------------------------
- Using acceleration for lj/charmm/coul/long:
-  with 9 proc(s) per device.
-  Horizontal vector operations: ENABLED
-  Shared memory system: No
--------------------------------------------------------------------------
Device 0: Tesla V100-SXM2-16GB, 80 CUs, 13/16 GB, 1.5 GHZ (Mixed Precision)
Device 1: Tesla V100-SXM2-16GB, 80 CUs, 1.5 GHZ (Mixed Precision)
Device 2: Tesla V100-SXM2-16GB, 80 CUs, 1.5 GHZ (Mixed Precision)
Device 3: Tesla V100-SXM2-16GB, 80 CUs, 1.5 GHZ (Mixed Precision)
--------------------------------------------------------------------------

Initializing Device and compiling on process 0...Done.
Initializing Devices 0-3 on core 0...Done.
Initializing Devices 0-3 on core 1...Done.
Initializing Devices 0-3 on core 2...Done.
Initializing Devices 0-3 on core 3...Done.
Initializing Devices 0-3 on core 4...Done.
Initializing Devices 0-3 on core 5...Done.
Initializing Devices 0-3 on core 6...Done.
Initializing Devices 0-3 on core 7...Done.
Initializing Devices 0-3 on core 8...Done.

  generated 2278 of 2278 mixed pair_coeff terms from arithmetic mixing rule
Setting up Verlet run ...
  Unit style    : real
  Current step  : 0
  Time step     : 2
Per MPI rank memory allocation (min/avg/max) = 75.63 | 76.01 | 76.38 Mbytes
---------------- Step        0 ----- CPU =      0.0000 (sec) ----------------
TotEng   =   -684607.4720 KinEng   =    579010.4447 Temp     =       299.0277 
PotEng   =  -1263617.9167 E_bond   =     68525.8383 E_angle  =    294877.1036 
E_dihed  =    140718.2355 E_impro  =      5764.8128 E_vdwl   =    -62312.3570 
E_coul   =   5503140.8793 E_long   =  -7214332.4293 Press    =      -148.7819 
Volume   =   8315865.9045 
---------------- Step       50 ----- CPU =      1.7251 (sec) ----------------
TotEng   =   -683885.4260 KinEng   =    580537.3261 Temp     =       299.8163 
PotEng   =  -1264422.7522 E_bond   =     66738.5316 E_angle  =    292590.9529 
E_dihed  =    141472.6695 E_impro  =      6132.6085 E_vdwl   =    -53808.7604 
E_coul   =   5496968.3560 E_long   =  -7214517.1104 Press    =       238.5958 
Volume   =   8316859.4027 
---------------- Step      100 ----- CPU =      3.5016 (sec) ----------------
TotEng   =   -682807.5177 KinEng   =    582947.8416 Temp     =       301.0612 
PotEng   =  -1265755.3593 E_bond   =     69340.3951 E_angle  =    291119.6194 
E_dihed  =    140358.5989 E_impro  =      5850.7783 E_vdwl   =    -51258.7308 
E_coul   =   5493199.3968 E_long   =  -7214365.4169 Press    =        10.9329 
Volume   =   8319641.0108 
Loop time of 3.50172 on 36 procs for 100 steps with 864000 atoms

Performance: 4.935 ns/day, 4.863 hours/ns, 28.557 timesteps/s
96.0% CPU use with 36 MPI tasks x 1 OpenMP threads

MPI task timing breakdown:
Section |  min time  |  avg time  |  max time  |%varavg|  %CPU | %total
-----------------------------------------------------------------------
Pair    | 0.3387     | 0.38369    | 0.43324    |   4.6 |  96.5 | 10.96
Bond    | 0.78452    | 0.81709    | 0.85733    |   2.0 |  99.7 | 23.33
Kspace  | 0.57189    | 0.61154    | 0.63971    |   2.6 |  92.2 | 17.46
Neigh   | 0.17399    | 0.17738    | 0.18031    |   0.3 |  94.7 |  5.07
Comm    | 0.27278    | 0.29801    | 0.3239     |   3.5 |  91.7 |  8.51
Output  | 0.00038246 | 0.00039397 | 0.00045244 |   0.0 | 100.0 |  0.01
Modify  | 1.0404     | 1.125      | 1.2026     |   4.7 |  96.4 | 32.13
Other   |            | 0.08863    |            |       |       |  2.53

Nlocal:          24000 ave       24061 max       23926 min
Histogram: 9 0 0 9 0 0 0 0 9 9
Nghost:        40696.5 ave       40811 max       40557 min
Histogram: 9 0 0 0 9 0 0 9 0 9
Neighs:              0 ave           0 max           0 min
Histogram: 36 0 0 0 0 0 0 0 0 0

Total # of neighbors = 0
Ave neighs/atom = 0
Ave special neighs/atom = 7.431875
Neighbor list builds = 11
Dangerous builds = 0


---------------------------------------------------------------------
      Device Time Info (average): 
---------------------------------------------------------------------
Data Transfer:   0.0125 s.
Neighbor copy:   0.1188 s.
Neighbor build:  0.1195 s.
Force calc:      0.3528 s.
Device Overhead: 0.0946 s.
Average split:   1.0000.
Lanes / atom:    8.
Vector width:    32.
Max Mem / Proc:  116.14 MB.
CPU Neighbor:    0.0220 s.
CPU Cast/Pack:   0.1088 s.
CPU Driver_Time: 0.0017 s.
CPU Idle_Time:   0.0023 s.
---------------------------------------------------------------------



---------------------------------------------------------------------
    Device Time Info (average) for kspace: 
---------------------------------------------------------------------
Data Out:        0.0086 s.
Data In:         0.0826 s.
Kernel (map):    0.1818 s.
Kernel (rho):    0.0165 s.
Force interp:    0.0933 s.
Total rho:       0.2069 s.
Total interp:    0.1760 s.
Force copy:      0.0252 s.
Total:           0.4081 s.
CPU Poisson:     0.4787 s.
CPU Data Cast:   0.0144 s.
CPU Idle Time:   0.1343 s.
Max Mem / Proc:  6.01 MB.
---------------------------------------------------------------------

Total wall time: 0:00:25
Intel(R) VTune(TM) Profiler 2022.2.0 collection completed successfully. Use the "aps --report /home/ubuntu/lammps/bench/aps_result_20220420" command to generate textual and HTML reports for the profiling session.
