LAMMPS (7 Jan 2022)
  using 1 OpenMP thread(s) per MPI task
Reading data file ...
  orthogonal box = (-27.5 -38.5 -36.3646) to (27.5 38.5 36.3615)
  1 by 3 by 2 MPI processor grid
  reading atoms ...
  32000 atoms
  reading velocities ...
  32000 velocities
  scanning bonds ...
  4 = max bonds/atom
  scanning angles ...
  8 = max angles/atom
  scanning dihedrals ...
  18 = max dihedrals/atom
  scanning impropers ...
  2 = max impropers/atom
  reading bonds ...
  27723 bonds
  reading angles ...
  40467 angles
  reading dihedrals ...
  56829 dihedrals
  reading impropers ...
  1034 impropers
Finding 1-2 1-3 1-4 neighbors ...
  special bond factors lj:    0        0        0       
  special bond factors coul:  0        0        0       
     4 = max # of 1-2 neighbors
    12 = max # of 1-3 neighbors
    24 = max # of 1-4 neighbors
    26 = max # of special neighbors
  special bonds CPU = 0.006 seconds
  read_data CPU = 0.326 seconds
Finding SHAKE clusters ...
    1617 = # of size 2 clusters
    3633 = # of size 3 clusters
     747 = # of size 4 clusters
    4233 = # of frozen angles
  find clusters CPU = 0.003 seconds

CITE-CITE-CITE-CITE-CITE-CITE-CITE-CITE-CITE-CITE-CITE-CITE-CITE

Your simulation uses code contributions which should be cited:
- GPU package (short-range, long-range and three-body potentials):
The log file lists these citations in BibTeX format.

CITE-CITE-CITE-CITE-CITE-CITE-CITE-CITE-CITE-CITE-CITE-CITE-CITE

PPPM initialization ...
  using 12-bit tables for long-range coulomb (../kspace.cpp:340)
  G vector (1/distance) = 0.24883488
  grid = 25 32 32
  stencil order = 5
  estimated absolute RMS force accuracy = 0.035547797
  estimated relative force accuracy = 0.00010705113
  using single precision MKL FFT
  3d grid and FFT values/proc = 10710 4800

--------------------------------------------------------------------------
- Using acceleration for pppm:
-  with 6 proc(s) per device.
-  Horizontal vector operations: ENABLED
-  Shared memory system: No
--------------------------------------------------------------------------
Device 0: Tesla V100-SXM2-16GB, 80 CUs, 14/16 GB, 1.5 GHZ (Mixed Precision)
--------------------------------------------------------------------------

Initializing Device and compiling on process 0...Done.
Initializing Device 0 on core 0...Done.
Initializing Device 0 on core 1...Done.
Initializing Device 0 on core 2...Done.
Initializing Device 0 on core 3...Done.
Initializing Device 0 on core 4...Done.
Initializing Device 0 on core 5...Done.


--------------------------------------------------------------------------
- Using acceleration for lj/charmm/coul/long:
-  with 6 proc(s) per device.
-  Horizontal vector operations: ENABLED
-  Shared memory system: No
--------------------------------------------------------------------------
Device 0: Tesla V100-SXM2-16GB, 80 CUs, 14/16 GB, 1.5 GHZ (Mixed Precision)
--------------------------------------------------------------------------

Initializing Device and compiling on process 0...Done.
Initializing Device 0 on core 0...Done.
Initializing Device 0 on core 1...Done.
Initializing Device 0 on core 2...Done.
Initializing Device 0 on core 3...Done.
Initializing Device 0 on core 4...Done.
Initializing Device 0 on core 5...Done.

  generated 2278 of 2278 mixed pair_coeff terms from arithmetic mixing rule
Setting up Verlet run ...
  Unit style    : real
  Current step  : 0
  Time step     : 2
Per MPI rank memory allocation (min/avg/max) = 36.02 | 36.13 | 36.28 Mbytes
---------------- Step        0 ----- CPU =      0.0000 (sec) ----------------
TotEng   =    -25356.2686 KinEng   =     21444.8313 Temp     =       299.0397 
PotEng   =    -46801.0999 E_bond   =      2537.9940 E_angle  =     10921.3742 
E_dihed  =      5211.7865 E_impro  =       213.5116 E_vdwl   =     -2307.8635 
E_coul   =    207025.8394 E_long   =   -270403.7421 Press    =      -149.3321 
Volume   =    307995.0335 
---------------- Step       50 ----- CPU =      0.3569 (sec) ----------------
TotEng   =    -25330.0779 KinEng   =     21500.9985 Temp     =       299.8229 
PotEng   =    -46831.0764 E_bond   =      2471.7037 E_angle  =     10836.5108 
E_dihed  =      5239.6320 E_impro  =       227.1218 E_vdwl   =     -1993.2897 
E_coul   =    206797.6462 E_long   =   -270410.4012 Press    =       237.6610 
Volume   =    308031.6776 
---------------- Step      100 ----- CPU =      0.7097 (sec) ----------------
TotEng   =    -25290.7905 KinEng   =     21591.9039 Temp     =       301.0905 
PotEng   =    -46882.6944 E_bond   =      2567.9806 E_angle  =     10781.9581 
E_dihed  =      5198.7495 E_impro  =       216.7865 E_vdwl   =     -1902.6656 
E_coul   =    206659.4785 E_long   =   -270404.9821 Press    =         6.7301 
Volume   =    308134.2321 
---------------- Step      150 ----- CPU =      1.0540 (sec) ----------------
TotEng   =    -25258.1206 KinEng   =     21529.6973 Temp     =       300.2231 
PotEng   =    -46787.8179 E_bond   =      2556.3452 E_angle  =     10852.7835 
E_dihed  =      5265.2320 E_impro  =       203.0688 E_vdwl   =     -2066.1850 
E_coul   =    206797.4215 E_long   =   -270396.4839 Press    =       251.4220 
Volume   =    308515.2415 
---------------- Step      200 ----- CPU =      1.4076 (sec) ----------------
TotEng   =    -25078.9574 KinEng   =     21571.2137 Temp     =       300.8020 
PotEng   =    -46650.1710 E_bond   =      2488.6942 E_angle  =     11073.4425 
E_dihed  =      5221.7530 E_impro  =       232.8571 E_vdwl   =     -2167.6911 
E_coul   =    206902.9063 E_long   =   -270402.1331 Press    =        20.6868 
Volume   =    308997.5290 
---------------- Step      250 ----- CPU =      1.7636 (sec) ----------------
TotEng   =    -24944.2681 KinEng   =     21548.1664 Temp     =       300.4806 
PotEng   =    -46492.4345 E_bond   =      2542.5544 E_angle  =     11105.5026 
E_dihed  =      5239.6438 E_impro  =       212.3487 E_vdwl   =     -2168.9443 
E_coul   =    206988.6599 E_long   =   -270412.1995 Press    =      -170.0704 
Volume   =    309388.0395 
---------------- Step      300 ----- CPU =      2.1072 (sec) ----------------
TotEng   =    -24999.7704 KinEng   =     21498.4891 Temp     =       299.7879 
PotEng   =    -46498.2595 E_bond   =      2557.8047 E_angle  =     10921.9761 
E_dihed  =      5211.0994 E_impro  =       222.1857 E_vdwl   =     -2216.6993 
E_coul   =    207192.2198 E_long   =   -270386.8460 Press    =      -367.7132 
Volume   =    309663.5956 
---------------- Step      350 ----- CPU =      2.4589 (sec) ----------------
TotEng   =    -25129.3169 KinEng   =     21469.1907 Temp     =       299.3794 
PotEng   =    -46598.5077 E_bond   =      2580.3854 E_angle  =     10951.7498 
E_dihed  =      5250.9538 E_impro  =       212.6712 E_vdwl   =     -2166.2260 
E_coul   =    206972.8422 E_long   =   -270400.8840 Press    =      -336.4925 
Volume   =    309801.4552 
---------------- Step      400 ----- CPU =      2.8103 (sec) ----------------
TotEng   =    -25206.5303 KinEng   =     21447.2614 Temp     =       299.0736 
PotEng   =    -46653.7917 E_bond   =      2526.9189 E_angle  =     10967.2013 
E_dihed  =      5205.5292 E_impro  =       213.0897 E_vdwl   =     -2183.6402 
E_coul   =    207030.8948 E_long   =   -270413.7854 Press    =       187.7840 
Volume   =    309820.6914 
---------------- Step      450 ----- CPU =      3.1573 (sec) ----------------
TotEng   =    -25161.2201 KinEng   =     21478.5163 Temp     =       299.5094 
PotEng   =    -46639.7364 E_bond   =      2499.7972 E_angle  =     10963.1437 
E_dihed  =      5244.4490 E_impro  =       226.1147 E_vdwl   =     -2257.1107 
E_coul   =    207074.0028 E_long   =   -270390.1332 Press    =       163.1925 
Volume   =    309784.0489 
---------------- Step      500 ----- CPU =      3.5004 (sec) ----------------
TotEng   =    -24980.1689 KinEng   =     21630.8118 Temp     =       301.6331 
PotEng   =    -46610.9807 E_bond   =      2568.7714 E_angle  =     10949.8718 
E_dihed  =      5262.2451 E_impro  =       218.3388 E_vdwl   =     -2267.3771 
E_coul   =    207049.4191 E_long   =   -270392.2499 Press    =      -352.8249 
Volume   =    309772.5902 
---------------- Step      550 ----- CPU =      3.8492 (sec) ----------------
TotEng   =    -24903.8572 KinEng   =     21603.0972 Temp     =       301.2466 
PotEng   =    -46506.9544 E_bond   =      2513.8427 E_angle  =     10934.2978 
E_dihed  =      5198.9563 E_impro  =       224.7288 E_vdwl   =     -2035.0642 
E_coul   =    207052.6591 E_long   =   -270396.3748 Press    =       390.5902 
Volume   =    309702.4188 
---------------- Step      600 ----- CPU =      4.2036 (sec) ----------------
TotEng   =    -24935.9192 KinEng   =     21668.6762 Temp     =       302.1611 
PotEng   =    -46604.5954 E_bond   =      2583.7356 E_angle  =     10886.5465 
E_dihed  =      5245.0877 E_impro  =       219.2841 E_vdwl   =     -2097.0052 
E_coul   =    206959.4334 E_long   =   -270401.6775 Press    =        90.6596 
Volume   =    309823.6639 
Loop time of 4.20369 on 6 procs for 600 steps with 32000 atoms

Performance: 24.664 ns/day, 0.973 hours/ns, 142.732 timesteps/s
97.0% CPU use with 6 MPI tasks x 1 OpenMP threads

MPI task timing breakdown:
Section |  min time  |  avg time  |  max time  |%varavg| %total
---------------------------------------------------------------
Pair    | 0.43202    | 0.49933    | 0.57602    |   6.4 | 11.88
Bond    | 1.036      | 1.1297     | 1.2733     |   7.0 | 26.87
Kspace  | 0.78066    | 0.92138    | 1.0254     |   7.9 | 21.92
Neigh   | 0.099702   | 0.10264    | 0.10444    |   0.6 |  2.44
Comm    | 0.28329    | 0.31662    | 0.33867    |   3.3 |  7.53
Output  | 0.00090155 | 0.00095994 | 0.0011986  |   0.0 |  0.02
Modify  | 1.0676     | 1.1664     | 1.2246     |   5.1 | 27.75
Other   |            | 0.06671    |            |       |  1.59

Nlocal:        5333.33 ave        5420 max        5257 min
Histogram: 2 0 1 0 0 0 1 0 1 1
Nghost:        19052.5 ave       19136 max       18947 min
Histogram: 1 1 0 0 1 0 0 0 2 1
Neighs:              0 ave           0 max           0 min
Histogram: 6 0 0 0 0 0 0 0 0 0

Total # of neighbors = 0
Ave neighs/atom = 0
Ave special neighs/atom = 7.431875
Neighbor list builds = 66
Dangerous builds = 0


---------------------------------------------------------------------
      Device Time Info (average): 
---------------------------------------------------------------------
Data Transfer:   0.0331 s.
Neighbor copy:   0.0377 s.
Neighbor build:  0.2205 s.
Force calc:      0.8152 s.
Device Overhead: 0.3949 s.
Average split:   1.0000.
Lanes / atom:    8.
Vector width:    32.
Max Mem / Proc:  26.33 MB.
CPU Neighbor:    0.0323 s.
CPU Cast/Pack:   0.1060 s.
CPU Driver_Time: 0.0116 s.
CPU Idle_Time:   0.0096 s.
---------------------------------------------------------------------



---------------------------------------------------------------------
    Device Time Info (average) for kspace: 
---------------------------------------------------------------------
Data Out:        0.0110 s.
Data In:         0.0479 s.
Kernel (map):    0.5087 s.
Kernel (rho):    0.0758 s.
Force interp:    0.2688 s.
Total rho:       0.5954 s.
Total interp:    0.3167 s.
Force copy:      0.0148 s.
Total:           0.9269 s.
CPU Poisson:     0.5930 s.
CPU Data Cast:   0.0144 s.
CPU Idle Time:   0.3038 s.
Max Mem / Proc:  1.64 MB.
---------------------------------------------------------------------

Total wall time: 0:00:08
Intel(R) VTune(TM) Profiler 2022.1.0 collection completed successfully. Use the "aps --report /home/ubuntu/lammps/bench/aps_result_20220414" command to generate textual and HTML reports for the profiling session.
