LAMMPS (7 Jan 2022)
  using 1 OpenMP thread(s) per MPI task
Reading data file ...
  orthogonal box = (-27.5 -38.5 -36.3646) to (27.5 38.5 36.3615)
  2 by 3 by 3 MPI processor grid
  reading atoms ...
  32000 atoms
  reading velocities ...
  32000 velocities
  scanning bonds ...
  4 = max bonds/atom
  scanning angles ...
  8 = max angles/atom
  scanning dihedrals ...
  18 = max dihedrals/atom
  scanning impropers ...
  2 = max impropers/atom
  reading bonds ...
  27723 bonds
  reading angles ...
  40467 angles
  reading dihedrals ...
  56829 dihedrals
  reading impropers ...
  1034 impropers
Finding 1-2 1-3 1-4 neighbors ...
  special bond factors lj:    0        0        0       
  special bond factors coul:  0        0        0       
     4 = max # of 1-2 neighbors
    12 = max # of 1-3 neighbors
    24 = max # of 1-4 neighbors
    26 = max # of special neighbors
  special bonds CPU = 0.005 seconds
  read_data CPU = 0.292 seconds
Finding SHAKE clusters ...
    1617 = # of size 2 clusters
    3633 = # of size 3 clusters
     747 = # of size 4 clusters
    4233 = # of frozen angles
  find clusters CPU = 0.003 seconds

CITE-CITE-CITE-CITE-CITE-CITE-CITE-CITE-CITE-CITE-CITE-CITE-CITE

Your simulation uses code contributions which should be cited:
- GPU package (short-range, long-range and three-body potentials):
The log file lists these citations in BibTeX format.

CITE-CITE-CITE-CITE-CITE-CITE-CITE-CITE-CITE-CITE-CITE-CITE-CITE

PPPM initialization ...
  using 12-bit tables for long-range coulomb (../kspace.cpp:340)
  G vector (1/distance) = 0.24883488
  grid = 25 32 32
  stencil order = 5
  estimated absolute RMS force accuracy = 0.035547797
  estimated relative force accuracy = 0.00010705113
  using single precision MKL FFT
  3d grid and FFT values/proc = 5202 1600

--------------------------------------------------------------------------
- Using acceleration for pppm:
-  with 3 proc(s) per device.
-  Horizontal vector operations: ENABLED
-  Shared memory system: No
--------------------------------------------------------------------------
Device 0: Tesla V100-SXM2-16GB, 80 CUs, 15/16 GB, 1.5 GHZ (Mixed Precision)
Device 1: Tesla V100-SXM2-16GB, 80 CUs, 1.5 GHZ (Mixed Precision)
Device 2: Tesla V100-SXM2-16GB, 80 CUs, 1.5 GHZ (Mixed Precision)
Device 3: Tesla V100-SXM2-16GB, 80 CUs, 1.5 GHZ (Mixed Precision)
Device 4: Tesla V100-SXM2-16GB, 80 CUs, 1.5 GHZ (Mixed Precision)
Device 5: Tesla V100-SXM2-16GB, 80 CUs, 1.5 GHZ (Mixed Precision)
--------------------------------------------------------------------------

Initializing Device and compiling on process 0...Done.
Initializing Devices 0-5 on core 0...Done.
Initializing Devices 0-5 on core 1...Done.
Initializing Devices 0-5 on core 2...Done.


--------------------------------------------------------------------------
- Using acceleration for lj/charmm/coul/long:
-  with 3 proc(s) per device.
-  Horizontal vector operations: ENABLED
-  Shared memory system: No
--------------------------------------------------------------------------
Device 0: Tesla V100-SXM2-16GB, 80 CUs, 15/16 GB, 1.5 GHZ (Mixed Precision)
Device 1: Tesla V100-SXM2-16GB, 80 CUs, 1.5 GHZ (Mixed Precision)
Device 2: Tesla V100-SXM2-16GB, 80 CUs, 1.5 GHZ (Mixed Precision)
Device 3: Tesla V100-SXM2-16GB, 80 CUs, 1.5 GHZ (Mixed Precision)
Device 4: Tesla V100-SXM2-16GB, 80 CUs, 1.5 GHZ (Mixed Precision)
Device 5: Tesla V100-SXM2-16GB, 80 CUs, 1.5 GHZ (Mixed Precision)
--------------------------------------------------------------------------

Initializing Device and compiling on process 0...Done.
Initializing Devices 0-5 on core 0...Done.
Initializing Devices 0-5 on core 1...Done.
Initializing Devices 0-5 on core 2...Done.

  generated 2278 of 2278 mixed pair_coeff terms from arithmetic mixing rule
Setting up Verlet run ...
  Unit style    : real
  Current step  : 0
  Time step     : 2
Per MPI rank memory allocation (min/avg/max) = 18.27 | 18.41 | 18.7 Mbytes
---------------- Step        0 ----- CPU =      0.0000 (sec) ----------------
TotEng   =    -25356.2687 KinEng   =     21444.8313 Temp     =       299.0397 
PotEng   =    -46801.1000 E_bond   =      2537.9940 E_angle  =     10921.3742 
E_dihed  =      5211.7865 E_impro  =       213.5116 E_vdwl   =     -2307.8635 
E_coul   =    207025.8394 E_long   =   -270403.7422 Press    =      -149.3321 
Volume   =    307995.0335 
---------------- Step       50 ----- CPU =      0.1885 (sec) ----------------
TotEng   =    -25330.0785 KinEng   =     21500.9990 Temp     =       299.8229 
PotEng   =    -46831.0775 E_bond   =      2471.7037 E_angle  =     10836.5109 
E_dihed  =      5239.6320 E_impro  =       227.1218 E_vdwl   =     -1993.2898 
E_coul   =    206797.6451 E_long   =   -270410.4012 Press    =       237.6576 
Volume   =    308031.6776 
---------------- Step      100 ----- CPU =      0.3733 (sec) ----------------
TotEng   =    -25290.7903 KinEng   =     21591.9063 Temp     =       301.0906 
PotEng   =    -46882.6966 E_bond   =      2567.9806 E_angle  =     10781.9581 
E_dihed  =      5198.7496 E_impro  =       216.7864 E_vdwl   =     -1902.6679 
E_coul   =    206659.4786 E_long   =   -270404.9820 Press    =         6.7265 
Volume   =    308134.2322 
---------------- Step      150 ----- CPU =      0.5475 (sec) ----------------
TotEng   =    -25258.1139 KinEng   =     21529.6606 Temp     =       300.2226 
PotEng   =    -46787.7745 E_bond   =      2556.3449 E_angle  =     10852.7814 
E_dihed  =      5265.2330 E_impro  =       203.0688 E_vdwl   =     -2066.1536 
E_coul   =    206797.4365 E_long   =   -270396.4855 Press    =       251.4671 
Volume   =    308515.2413 
---------------- Step      200 ----- CPU =      0.7264 (sec) ----------------
TotEng   =    -25078.8793 KinEng   =     21571.2091 Temp     =       300.8020 
PotEng   =    -46650.0884 E_bond   =      2488.6939 E_angle  =     11073.4424 
E_dihed  =      5221.7538 E_impro  =       232.8566 E_vdwl   =     -2167.6325 
E_coul   =    206902.9216 E_long   =   -270402.1241 Press    =        20.8023 
Volume   =    308997.5466 
---------------- Step      250 ----- CPU =      0.9055 (sec) ----------------
TotEng   =    -24944.3307 KinEng   =     21547.7171 Temp     =       300.4744 
PotEng   =    -46492.0478 E_bond   =      2542.5504 E_angle  =     11105.4750 
E_dihed  =      5239.6372 E_impro  =       212.3485 E_vdwl   =     -2168.8418 
E_coul   =    206988.9814 E_long   =   -270412.1984 Press    =      -169.8448 
Volume   =    309388.0975 
---------------- Step      300 ----- CPU =      1.0861 (sec) ----------------
TotEng   =    -25000.5520 KinEng   =     21498.1283 Temp     =       299.7829 
PotEng   =    -46498.6803 E_bond   =      2557.8972 E_angle  =     10922.0139 
E_dihed  =      5211.1106 E_impro  =       222.2241 E_vdwl   =     -2218.2901 
E_coul   =    207193.1355 E_long   =   -270386.7715 Press    =      -369.8879 
Volume   =    309663.5628 
---------------- Step      350 ----- CPU =      1.2719 (sec) ----------------
TotEng   =    -25130.9109 KinEng   =     21470.5921 Temp     =       299.3989 
PotEng   =    -46601.5030 E_bond   =      2580.3629 E_angle  =     10951.3738 
E_dihed  =      5250.7817 E_impro  =       212.6545 E_vdwl   =     -2166.8909 
E_coul   =    206970.3136 E_long   =   -270400.0986 Press    =      -334.5528 
Volume   =    309800.6868 
---------------- Step      400 ----- CPU =      1.4541 (sec) ----------------
TotEng   =    -25208.0088 KinEng   =     21453.6371 Temp     =       299.1625 
PotEng   =    -46661.6460 E_bond   =      2526.5349 E_angle  =     10965.2047 
E_dihed  =      5205.7771 E_impro  =       213.0901 E_vdwl   =     -2214.8147 
E_coul   =    207057.8442 E_long   =   -270415.2823 Press    =       165.2697 
Volume   =    309816.7529 
---------------- Step      450 ----- CPU =      1.6340 (sec) ----------------
TotEng   =    -25178.1077 KinEng   =     21490.0882 Temp     =       299.6708 
PotEng   =    -46668.1959 E_bond   =      2499.8459 E_angle  =     10958.9884 
E_dihed  =      5244.0897 E_impro  =       225.4247 E_vdwl   =     -2234.7513 
E_coul   =    207031.2765 E_long   =   -270393.0699 Press    =       183.2578 
Volume   =    309776.4348 
---------------- Step      500 ----- CPU =      1.8138 (sec) ----------------
TotEng   =    -25018.5317 KinEng   =     21646.0656 Temp     =       301.8458 
PotEng   =    -46664.5973 E_bond   =      2567.4385 E_angle  =     10935.3126 
E_dihed  =      5257.4106 E_impro  =       216.7392 E_vdwl   =     -2194.3570 
E_coul   =    206947.2960 E_long   =   -270394.4372 Press    =      -301.2605 
Volume   =    309784.4463 
---------------- Step      550 ----- CPU =      1.9941 (sec) ----------------
TotEng   =    -24947.4523 KinEng   =     21639.9712 Temp     =       301.7608 
PotEng   =    -46587.4235 E_bond   =      2504.7136 E_angle  =     10915.9147 
E_dihed  =      5194.2920 E_impro  =       220.2448 E_vdwl   =     -2036.9729 
E_coul   =    207012.0843 E_long   =   -270397.7001 Press    =       408.9688 
Volume   =    309757.8510 
---------------- Step      600 ----- CPU =      2.1757 (sec) ----------------
TotEng   =    -25009.1333 KinEng   =     21722.9005 Temp     =       302.9172 
PotEng   =    -46732.0339 E_bond   =      2562.8760 E_angle  =     10892.4661 
E_dihed  =      5233.3852 E_impro  =       215.3700 E_vdwl   =     -2255.7126 
E_coul   =    207035.2916 E_long   =   -270415.7102 Press    =        41.1525 
Volume   =    309868.3839 
Loop time of 2.17576 on 18 procs for 600 steps with 32000 atoms

Performance: 47.652 ns/day, 0.504 hours/ns, 275.765 timesteps/s
94.4% CPU use with 18 MPI tasks x 1 OpenMP threads

MPI task timing breakdown:
Section |  min time  |  avg time  |  max time  |%varavg| %total
---------------------------------------------------------------
Pair    | 0.23278    | 0.26971    | 0.33311    |   5.3 | 12.40
Bond    | 0.19565    | 0.36465    | 0.62577    |  25.3 | 16.76
Kspace  | 0.53898    | 0.78793    | 0.96173    |  17.0 | 36.21
Neigh   | 0.042508   | 0.043189   | 0.043678   |   0.1 |  1.98
Comm    | 0.19926    | 0.20962    | 0.24148    |   3.2 |  9.63
Output  | 0.00089116 | 0.00091763 | 0.0011931  |   0.0 |  0.04
Modify  | 0.41618    | 0.47035    | 0.51544    |   4.8 | 21.62
Other   |            | 0.02939    |            |       |  1.35

Nlocal:        1777.78 ave        1838 max        1727 min
Histogram: 2 3 1 2 1 5 0 0 1 3
Nghost:        11019.4 ave       11152 max       10849 min
Histogram: 1 2 0 3 1 4 1 1 2 3
Neighs:              0 ave           0 max           0 min
Histogram: 18 0 0 0 0 0 0 0 0 0

Total # of neighbors = 0
Ave neighs/atom = 0
Ave special neighs/atom = 7.431875
Neighbor list builds = 67
Dangerous builds = 0


---------------------------------------------------------------------
      Device Time Info (average): 
---------------------------------------------------------------------
Data Transfer:   0.0155 s.
Neighbor copy:   0.0315 s.
Neighbor build:  0.1165 s.
Force calc:      0.3607 s.
Device Overhead: 0.1848 s.
Average split:   1.0000.
Lanes / atom:    8.
Vector width:    32.
Max Mem / Proc:  9.01 MB.
CPU Neighbor:    0.0231 s.
CPU Cast/Pack:   0.0522 s.
CPU Driver_Time: 0.0103 s.
CPU Idle_Time:   0.0018 s.
---------------------------------------------------------------------



---------------------------------------------------------------------
    Device Time Info (average) for kspace: 
---------------------------------------------------------------------
Data Out:        0.0081 s.
Data In:         0.0329 s.
Kernel (map):    0.2170 s.
Kernel (rho):    0.0674 s.
Force interp:    0.1095 s.
Total rho:       0.2924 s.
Total interp:    0.1424 s.
Force copy:      0.0098 s.
Total:           0.4447 s.
CPU Poisson:     0.5565 s.
CPU Data Cast:   0.0042 s.
CPU Idle Time:   0.2083 s.
Max Mem / Proc:  0.65 MB.
---------------------------------------------------------------------

Total wall time: 0:00:12
Intel(R) VTune(TM) Profiler 2022.1.0 collection completed successfully. Use the "aps --report /home/ubuntu/lammps/bench/aps_result_20220414" command to generate textual and HTML reports for the profiling session.
