LAMMPS (7 Jan 2022)
  using 1 OpenMP thread(s) per MPI task
Reading data file ...
  orthogonal box = (-27.5 -38.5 -36.3646) to (27.5 38.5 36.3615)
  1 by 3 by 2 MPI processor grid
  reading atoms ...
  32000 atoms
  reading velocities ...
  32000 velocities
  scanning bonds ...
  4 = max bonds/atom
  scanning angles ...
  8 = max angles/atom
  scanning dihedrals ...
  18 = max dihedrals/atom
  scanning impropers ...
  2 = max impropers/atom
  reading bonds ...
  27723 bonds
  reading angles ...
  40467 angles
  reading dihedrals ...
  56829 dihedrals
  reading impropers ...
  1034 impropers
Finding 1-2 1-3 1-4 neighbors ...
  special bond factors lj:    0        0        0       
  special bond factors coul:  0        0        0       
     4 = max # of 1-2 neighbors
    12 = max # of 1-3 neighbors
    24 = max # of 1-4 neighbors
    26 = max # of special neighbors
  special bonds CPU = 0.006 seconds
  read_data CPU = 0.390 seconds
Finding SHAKE clusters ...
    1617 = # of size 2 clusters
    3633 = # of size 3 clusters
     747 = # of size 4 clusters
    4233 = # of frozen angles
  find clusters CPU = 0.003 seconds

CITE-CITE-CITE-CITE-CITE-CITE-CITE-CITE-CITE-CITE-CITE-CITE-CITE

Your simulation uses code contributions which should be cited:
- GPU package (short-range, long-range and three-body potentials):
The log file lists these citations in BibTeX format.

CITE-CITE-CITE-CITE-CITE-CITE-CITE-CITE-CITE-CITE-CITE-CITE-CITE

PPPM initialization ...
  using 12-bit tables for long-range coulomb (../kspace.cpp:340)
  G vector (1/distance) = 0.24883488
  grid = 25 32 32
  stencil order = 5
  estimated absolute RMS force accuracy = 0.035547797
  estimated relative force accuracy = 0.00010705113
  using single precision MKL FFT
  3d grid and FFT values/proc = 10710 4800

--------------------------------------------------------------------------
- Using acceleration for pppm:
-  with 6 proc(s) per device.
-  Horizontal vector operations: ENABLED
-  Shared memory system: No
--------------------------------------------------------------------------
Device 0: Tesla V100-SXM2-16GB, 80 CUs, 14/16 GB, 1.5 GHZ (Double Precision)
--------------------------------------------------------------------------

Initializing Device and compiling on process 0...Done.
Initializing Device 0 on core 0...Done.
Initializing Device 0 on core 1...Done.
Initializing Device 0 on core 2...Done.
Initializing Device 0 on core 3...Done.
Initializing Device 0 on core 4...Done.
Initializing Device 0 on core 5...Done.


--------------------------------------------------------------------------
- Using acceleration for lj/charmm/coul/long:
-  with 6 proc(s) per device.
-  Horizontal vector operations: ENABLED
-  Shared memory system: No
--------------------------------------------------------------------------
Device 0: Tesla V100-SXM2-16GB, 80 CUs, 14/16 GB, 1.5 GHZ (Double Precision)
--------------------------------------------------------------------------

Initializing Device and compiling on process 0...Done.
Initializing Device 0 on core 0...Done.
Initializing Device 0 on core 1...Done.
Initializing Device 0 on core 2...Done.
Initializing Device 0 on core 3...Done.
Initializing Device 0 on core 4...Done.
Initializing Device 0 on core 5...Done.

  generated 2278 of 2278 mixed pair_coeff terms from arithmetic mixing rule
Setting up Verlet run ...
  Unit style    : real
  Current step  : 0
  Time step     : 2
Per MPI rank memory allocation (min/avg/max) = 37.05 | 37.16 | 37.31 Mbytes
---------------- Step        0 ----- CPU =      0.0000 (sec) ----------------
TotEng   =    -25356.2130 KinEng   =     21444.8313 Temp     =       299.0397 
PotEng   =    -46801.0443 E_bond   =      2537.9940 E_angle  =     10921.3742 
E_dihed  =      5211.7865 E_impro  =       213.5116 E_vdwl   =     -2307.8634 
E_coul   =    207025.8948 E_long   =   -270403.7420 Press    =      -149.3265 
Volume   =    307995.0335 
---------------- Step       50 ----- CPU =      0.4255 (sec) ----------------
TotEng   =    -25330.0337 KinEng   =     21500.9985 Temp     =       299.8229 
PotEng   =    -46831.0322 E_bond   =      2471.7036 E_angle  =     10836.5106 
E_dihed  =      5239.6321 E_impro  =       227.1218 E_vdwl   =     -1993.2895 
E_coul   =    206797.6904 E_long   =   -270410.4012 Press    =       237.6619 
Volume   =    308031.6773 
---------------- Step      100 ----- CPU =      0.8497 (sec) ----------------
TotEng   =    -25290.7420 KinEng   =     21591.9072 Temp     =       301.0906 
PotEng   =    -46882.6492 E_bond   =      2567.9808 E_angle  =     10781.9580 
E_dihed  =      5198.7493 E_impro  =       216.7864 E_vdwl   =     -1902.6664 
E_coul   =    206659.5248 E_long   =   -270404.9822 Press    =         6.7340 
Volume   =    308134.2313 
---------------- Step      150 ----- CPU =      1.2589 (sec) ----------------
TotEng   =    -25258.0348 KinEng   =     21529.6478 Temp     =       300.2224 
PotEng   =    -46787.6825 E_bond   =      2556.3466 E_angle  =     10852.7817 
E_dihed  =      5265.2314 E_impro  =       203.0691 E_vdwl   =     -2066.1406 
E_coul   =    206797.5130 E_long   =   -270396.4836 Press    =       251.5168 
Volume   =    308515.2446 
---------------- Step      200 ----- CPU =      1.6752 (sec) ----------------
TotEng   =    -25078.8569 KinEng   =     21571.4107 Temp     =       300.8048 
PotEng   =    -46650.2677 E_bond   =      2488.6946 E_angle  =     11073.4403 
E_dihed  =      5221.7534 E_impro  =       232.8555 E_vdwl   =     -2167.6958 
E_coul   =    206902.8114 E_long   =   -270402.1269 Press    =        20.6683 
Volume   =    308997.5620 
---------------- Step      250 ----- CPU =      2.0933 (sec) ----------------
TotEng   =    -24944.3293 KinEng   =     21547.0241 Temp     =       300.4647 
PotEng   =    -46491.3533 E_bond   =      2542.5484 E_angle  =     11105.4961 
E_dihed  =      5239.6561 E_impro  =       212.3476 E_vdwl   =     -2169.2024 
E_coul   =    206989.9967 E_long   =   -270412.1958 Press    =      -170.0945 
Volume   =    309388.0823 
---------------- Step      300 ----- CPU =      2.5001 (sec) ----------------
TotEng   =    -24999.8370 KinEng   =     21501.7963 Temp     =       299.8340 
PotEng   =    -46501.6332 E_bond   =      2557.9317 E_angle  =     10921.7835 
E_dihed  =      5211.0528 E_impro  =       222.1765 E_vdwl   =     -2220.8600 
E_coul   =    207193.1857 E_long   =   -270386.9034 Press    =      -371.5489 
Volume   =    309663.7262 
---------------- Step      350 ----- CPU =      2.9295 (sec) ----------------
TotEng   =    -25128.5411 KinEng   =     21463.2932 Temp     =       299.2971 
PotEng   =    -46591.8343 E_bond   =      2580.5195 E_angle  =     10952.0687 
E_dihed  =      5250.5638 E_impro  =       212.6709 E_vdwl   =     -2167.1344 
E_coul   =    206981.5607 E_long   =   -270402.0833 Press    =      -336.1232 
Volume   =    309801.3786 
---------------- Step      400 ----- CPU =      3.3509 (sec) ----------------
TotEng   =    -25200.6254 KinEng   =     21395.4059 Temp     =       298.3505 
PotEng   =    -46596.0313 E_bond   =      2526.6311 E_angle  =     10968.1110 
E_dihed  =      5206.5538 E_impro  =       212.4528 E_vdwl   =     -2141.4676 
E_coul   =    207042.9852 E_long   =   -270411.2975 Press    =       238.1892 
Volume   =    309816.1986 
---------------- Step      450 ----- CPU =      3.7634 (sec) ----------------
TotEng   =    -25130.1113 KinEng   =     21499.7150 Temp     =       299.8050 
PotEng   =    -46629.8263 E_bond   =      2502.0025 E_angle  =     10969.2076 
E_dihed  =      5244.3771 E_impro  =       226.7700 E_vdwl   =     -2263.9990 
E_coul   =    207086.9783 E_long   =   -270395.1627 Press    =       161.9697 
Volume   =    309781.8136 
---------------- Step      500 ----- CPU =      4.1840 (sec) ----------------
TotEng   =    -24945.3992 KinEng   =     21633.2743 Temp     =       301.6674 
PotEng   =    -46578.6735 E_bond   =      2573.4374 E_angle  =     10957.6064 
E_dihed  =      5270.7434 E_impro  =       215.9795 E_vdwl   =     -2218.8988 
E_coul   =    207021.3611 E_long   =   -270398.9026 Press    =      -304.7806 
Volume   =    309768.9591 
---------------- Step      550 ----- CPU =      4.5977 (sec) ----------------
TotEng   =    -24927.5143 KinEng   =     21572.8285 Temp     =       300.8245 
PotEng   =    -46500.3428 E_bond   =      2512.3000 E_angle  =     10908.2102 
E_dihed  =      5208.1512 E_impro  =       226.2610 E_vdwl   =     -1972.1510 
E_coul   =    207005.7982 E_long   =   -270388.9125 Press    =       465.1769 
Volume   =    309702.8297 
---------------- Step      600 ----- CPU =      5.0282 (sec) ----------------
TotEng   =    -24970.8719 KinEng   =     21645.4156 Temp     =       301.8367 
PotEng   =    -46616.2874 E_bond   =      2574.0253 E_angle  =     10866.9717 
E_dihed  =      5241.5154 E_impro  =       216.8242 E_vdwl   =     -2168.5407 
E_coul   =    207048.1628 E_long   =   -270395.2461 Press    =        35.2536 
Volume   =    309847.3520 
Loop time of 5.02829 on 6 procs for 600 steps with 32000 atoms

Performance: 20.619 ns/day, 1.164 hours/ns, 119.325 timesteps/s
98.4% CPU use with 6 MPI tasks x 1 OpenMP threads

MPI task timing breakdown:
Section |  min time  |  avg time  |  max time  |%varavg| %total
---------------------------------------------------------------
Pair    | 1.1621     | 1.28       | 1.4075     |   7.4 | 25.46
Bond    | 1.014      | 1.1816     | 1.281      |   8.0 | 23.50
Kspace  | 0.82825    | 0.9304     | 1.1055     |   9.5 | 18.50
Neigh   | 0.093872   | 0.096887   | 0.098729   |   0.7 |  1.93
Comm    | 0.27855    | 0.30939    | 0.3266     |   3.0 |  6.15
Output  | 0.00084432 | 0.00089142 | 0.0011186  |   0.0 |  0.02
Modify  | 1.0614     | 1.1674     | 1.2849     |   8.0 | 23.22
Other   |            | 0.06172    |            |       |  1.23

Nlocal:        5333.33 ave        5421 max        5247 min
Histogram: 1 1 0 1 0 0 1 0 1 1
Nghost:        19047.8 ave       19140 max       18931 min
Histogram: 1 1 0 0 0 0 1 2 0 1
Neighs:              0 ave           0 max           0 min
Histogram: 6 0 0 0 0 0 0 0 0 0

Total # of neighbors = 0
Ave neighs/atom = 0
Ave special neighs/atom = 7.431875
Neighbor list builds = 67
Dangerous builds = 0


---------------------------------------------------------------------
      Device Time Info (average): 
---------------------------------------------------------------------
Data Transfer:   0.0257 s.
Neighbor copy:   0.0396 s.
Neighbor build:  0.2424 s.
Force calc:      1.2489 s.
Device Overhead: 0.4099 s.
Average split:   1.0000.
Lanes / atom:    8.
Vector width:    32.
Max Mem / Proc:  26.92 MB.
CPU Neighbor:    0.0340 s.
CPU Cast/Pack:   0.1564 s.
CPU Driver_Time: 0.0164 s.
CPU Idle_Time:   0.2038 s.
---------------------------------------------------------------------



---------------------------------------------------------------------
    Device Time Info (average) for kspace: 
---------------------------------------------------------------------
Data Out:        0.0159 s.
Data In:         0.0277 s.
Kernel (map):    0.4672 s.
Kernel (rho):    0.0773 s.
Force interp:    0.7198 s.
Total rho:       0.5604 s.
Total interp:    0.7475 s.
Force copy:      0.0164 s.
Total:           1.3242 s.
CPU Poisson:     0.5642 s.
CPU Data Cast:   0.0141 s.
CPU Idle Time:   0.3352 s.
Max Mem / Proc:  1.64 MB.
---------------------------------------------------------------------

Total wall time: 0:00:12
Intel(R) VTune(TM) Profiler 2022.2.0 collection completed successfully. Use the "aps --report /home/ubuntu/lammps/bench/aps_result_20220610" command to generate textual and HTML reports for the profiling session.
