LAMMPS (7 Jan 2022)
  using 1 OpenMP thread(s) per MPI task
Reading data file ...
  orthogonal box = (-27.5 -38.5 -36.3646) to (27.5 38.5 36.3615)
  2 by 4 by 3 MPI processor grid
  reading atoms ...
  32000 atoms
  reading velocities ...
  32000 velocities
  scanning bonds ...
  4 = max bonds/atom
  scanning angles ...
  8 = max angles/atom
  scanning dihedrals ...
  18 = max dihedrals/atom
  scanning impropers ...
  2 = max impropers/atom
  reading bonds ...
  27723 bonds
  reading angles ...
  40467 angles
  reading dihedrals ...
  56829 dihedrals
  reading impropers ...
  1034 impropers
Finding 1-2 1-3 1-4 neighbors ...
  special bond factors lj:    0        0        0       
  special bond factors coul:  0        0        0       
     4 = max # of 1-2 neighbors
    12 = max # of 1-3 neighbors
    24 = max # of 1-4 neighbors
    26 = max # of special neighbors
  special bonds CPU = 0.005 seconds
  read_data CPU = 0.398 seconds
Finding SHAKE clusters ...
    1617 = # of size 2 clusters
    3633 = # of size 3 clusters
     747 = # of size 4 clusters
    4233 = # of frozen angles
  find clusters CPU = 0.003 seconds

CITE-CITE-CITE-CITE-CITE-CITE-CITE-CITE-CITE-CITE-CITE-CITE-CITE

Your simulation uses code contributions which should be cited:
- GPU package (short-range, long-range and three-body potentials):
The log file lists these citations in BibTeX format.

CITE-CITE-CITE-CITE-CITE-CITE-CITE-CITE-CITE-CITE-CITE-CITE-CITE

PPPM initialization ...
  using 12-bit tables for long-range coulomb (../kspace.cpp:340)
  G vector (1/distance) = 0.24883488
  grid = 25 32 32
  stencil order = 5
  estimated absolute RMS force accuracy = 0.035547797
  estimated relative force accuracy = 0.00010705113
  using single precision MKL FFT
  3d grid and FFT values/proc = 3978 1600

--------------------------------------------------------------------------
- Using acceleration for pppm:
-  with 3 proc(s) per device.
-  Horizontal vector operations: ENABLED
-  Shared memory system: No
--------------------------------------------------------------------------
Device 0: Tesla V100-SXM2-16GB, 80 CUs, 15/16 GB, 1.5 GHZ (Double Precision)
Device 1: Tesla V100-SXM2-16GB, 80 CUs, 1.5 GHZ (Double Precision)
Device 2: Tesla V100-SXM2-16GB, 80 CUs, 1.5 GHZ (Double Precision)
Device 3: Tesla V100-SXM2-16GB, 80 CUs, 1.5 GHZ (Double Precision)
Device 4: Tesla V100-SXM2-16GB, 80 CUs, 1.5 GHZ (Double Precision)
Device 5: Tesla V100-SXM2-16GB, 80 CUs, 1.5 GHZ (Double Precision)
Device 6: Tesla V100-SXM2-16GB, 80 CUs, 1.5 GHZ (Double Precision)
Device 7: Tesla V100-SXM2-16GB, 80 CUs, 1.5 GHZ (Double Precision)
--------------------------------------------------------------------------

Initializing Device and compiling on process 0...Done.
Initializing Devices 0-7 on core 0...Done.
Initializing Devices 0-7 on core 1...Done.
Initializing Devices 0-7 on core 2...Done.


--------------------------------------------------------------------------
- Using acceleration for lj/charmm/coul/long:
-  with 3 proc(s) per device.
-  Horizontal vector operations: ENABLED
-  Shared memory system: No
--------------------------------------------------------------------------
Device 0: Tesla V100-SXM2-16GB, 80 CUs, 15/16 GB, 1.5 GHZ (Double Precision)
Device 1: Tesla V100-SXM2-16GB, 80 CUs, 1.5 GHZ (Double Precision)
Device 2: Tesla V100-SXM2-16GB, 80 CUs, 1.5 GHZ (Double Precision)
Device 3: Tesla V100-SXM2-16GB, 80 CUs, 1.5 GHZ (Double Precision)
Device 4: Tesla V100-SXM2-16GB, 80 CUs, 1.5 GHZ (Double Precision)
Device 5: Tesla V100-SXM2-16GB, 80 CUs, 1.5 GHZ (Double Precision)
Device 6: Tesla V100-SXM2-16GB, 80 CUs, 1.5 GHZ (Double Precision)
Device 7: Tesla V100-SXM2-16GB, 80 CUs, 1.5 GHZ (Double Precision)
--------------------------------------------------------------------------

Initializing Device and compiling on process 0...Done.
Initializing Devices 0-7 on core 0...Done.
Initializing Devices 0-7 on core 1...Done.
Initializing Devices 0-7 on core 2...Done.

  generated 2278 of 2278 mixed pair_coeff terms from arithmetic mixing rule
Setting up Verlet run ...
  Unit style    : real
  Current step  : 0
  Time step     : 2
Per MPI rank memory allocation (min/avg/max) = 18.49 | 18.65 | 18.91 Mbytes
---------------- Step        0 ----- CPU =      0.0000 (sec) ----------------
TotEng   =    -25356.2131 KinEng   =     21444.8313 Temp     =       299.0397 
PotEng   =    -46801.0444 E_bond   =      2537.9940 E_angle  =     10921.3742 
E_dihed  =      5211.7865 E_impro  =       213.5116 E_vdwl   =     -2307.8634 
E_coul   =    207025.8948 E_long   =   -270403.7421 Press    =      -149.3266 
Volume   =    307995.0335 
---------------- Step       50 ----- CPU =      0.2348 (sec) ----------------
TotEng   =    -25330.0369 KinEng   =     21500.9980 Temp     =       299.8229 
PotEng   =    -46831.0349 E_bond   =      2471.7036 E_angle  =     10836.5106 
E_dihed  =      5239.6321 E_impro  =       227.1218 E_vdwl   =     -1993.2896 
E_coul   =    206797.6879 E_long   =   -270410.4013 Press    =       237.6592 
Volume   =    308031.6774 
---------------- Step      100 ----- CPU =      0.4319 (sec) ----------------
TotEng   =    -25290.7473 KinEng   =     21591.9054 Temp     =       301.0906 
PotEng   =    -46882.6528 E_bond   =      2567.9808 E_angle  =     10781.9584 
E_dihed  =      5198.7494 E_impro  =       216.7864 E_vdwl   =     -1902.6638 
E_coul   =    206659.5180 E_long   =   -270404.9820 Press    =         6.7309 
Volume   =    308134.2316 
---------------- Step      150 ----- CPU =      0.6214 (sec) ----------------
TotEng   =    -25258.0313 KinEng   =     21529.6480 Temp     =       300.2224 
PotEng   =    -46787.6793 E_bond   =      2556.3467 E_angle  =     10852.7816 
E_dihed  =      5265.2316 E_impro  =       203.0691 E_vdwl   =     -2066.1441 
E_coul   =    206797.5185 E_long   =   -270396.4826 Press    =       251.5184 
Volume   =    308515.2457 
---------------- Step      200 ----- CPU =      0.8129 (sec) ----------------
TotEng   =    -25078.8475 KinEng   =     21571.3872 Temp     =       300.8044 
PotEng   =    -46650.2348 E_bond   =      2488.6945 E_angle  =     11073.4417 
E_dihed  =      5221.7539 E_impro  =       232.8553 E_vdwl   =     -2167.6897 
E_coul   =    206902.8323 E_long   =   -270402.1227 Press    =        20.6937 
Volume   =    308997.5623 
---------------- Step      250 ----- CPU =      1.0033 (sec) ----------------
TotEng   =    -24944.2979 KinEng   =     21547.0787 Temp     =       300.4655 
PotEng   =    -46491.3766 E_bond   =      2542.5496 E_angle  =     11105.4987 
E_dihed  =      5239.6542 E_impro  =       212.3478 E_vdwl   =     -2169.0825 
E_coul   =    206989.8599 E_long   =   -270412.2042 Press    =      -169.9158 
Volume   =    309388.0786 
---------------- Step      300 ----- CPU =      1.1940 (sec) ----------------
TotEng   =    -24999.8334 KinEng   =     21501.8301 Temp     =       299.8345 
PotEng   =    -46501.6635 E_bond   =      2557.9367 E_angle  =     10921.7638 
E_dihed  =      5211.0652 E_impro  =       222.1756 E_vdwl   =     -2220.1919 
E_coul   =    207192.5060 E_long   =   -270386.9189 Press    =      -370.9383 
Volume   =    309663.6949 
---------------- Step      350 ----- CPU =      1.3878 (sec) ----------------
TotEng   =    -25128.8889 KinEng   =     21465.1983 Temp     =       299.3237 
PotEng   =    -46594.0872 E_bond   =      2580.4824 E_angle  =     10951.9008 
E_dihed  =      5250.6458 E_impro  =       212.6980 E_vdwl   =     -2168.2051 
E_coul   =    206980.2686 E_long   =   -270401.8777 Press    =      -336.2745 
Volume   =    309801.5482 
---------------- Step      400 ----- CPU =      1.5762 (sec) ----------------
TotEng   =    -25202.2495 KinEng   =     21394.9350 Temp     =       298.3439 
PotEng   =    -46597.1846 E_bond   =      2526.6925 E_angle  =     10967.6547 
E_dihed  =      5206.4238 E_impro  =       212.3997 E_vdwl   =     -2146.0962 
E_coul   =    207046.6790 E_long   =   -270410.9380 Press    =       232.6047 
Volume   =    309817.1814 
---------------- Step      450 ----- CPU =      1.7695 (sec) ----------------
TotEng   =    -25133.3667 KinEng   =     21504.6417 Temp     =       299.8737 
PotEng   =    -46638.0084 E_bond   =      2501.9325 E_angle  =     10968.9370 
E_dihed  =      5244.5673 E_impro  =       225.5451 E_vdwl   =     -2261.6997 
E_coul   =    207078.0208 E_long   =   -270395.3112 Press    =       160.3876 
Volume   =    309785.9055 
---------------- Step      500 ----- CPU =      1.9630 (sec) ----------------
TotEng   =    -24973.3199 KinEng   =     21608.4392 Temp     =       301.3211 
PotEng   =    -46581.7591 E_bond   =      2570.7985 E_angle  =     10948.6774 
E_dihed  =      5265.1571 E_impro  =       216.1286 E_vdwl   =     -2241.4742 
E_coul   =    207046.9586 E_long   =   -270388.0050 Press    =      -326.6926 
Volume   =    309779.7757 
---------------- Step      550 ----- CPU =      2.1490 (sec) ----------------
TotEng   =    -24931.1357 KinEng   =     21565.7923 Temp     =       300.7264 
PotEng   =    -46496.9280 E_bond   =      2509.6169 E_angle  =     10901.0588 
E_dihed  =      5204.1245 E_impro  =       223.0349 E_vdwl   =     -1977.5542 
E_coul   =    207034.7685 E_long   =   -270391.9776 Press    =       432.3618 
Volume   =    309717.0839 
---------------- Step      600 ----- CPU =      2.3476 (sec) ----------------
TotEng   =    -24935.8809 KinEng   =     21728.9283 Temp     =       303.0013 
PotEng   =    -46664.8091 E_bond   =      2566.3292 E_angle  =     10876.7421 
E_dihed  =      5237.2741 E_impro  =       219.4058 E_vdwl   =     -2094.4489 
E_coul   =    206918.7208 E_long   =   -270388.8321 Press    =        96.3025 
Volume   =    309832.3059 
Loop time of 2.34771 on 24 procs for 600 steps with 32000 atoms

Performance: 44.162 ns/day, 0.543 hours/ns, 255.568 timesteps/s
95.3% CPU use with 24 MPI tasks x 1 OpenMP threads

MPI task timing breakdown:
Section |  min time  |  avg time  |  max time  |%varavg| %total
---------------------------------------------------------------
Pair    | 0.31962    | 0.36923    | 0.42631    |   5.5 | 15.73
Bond    | 0.15946    | 0.31771    | 0.52291    |  22.6 | 13.53
Kspace  | 0.64612    | 0.85431    | 1.0155     |  13.8 | 36.39
Neigh   | 0.034809   | 0.035731   | 0.036478   |   0.3 |  1.52
Comm    | 0.19455    | 0.22231    | 0.23874    |   3.5 |  9.47
Output  | 0.0008933  | 0.00091358 | 0.0011977  |   0.0 |  0.04
Modify  | 0.42059    | 0.49036    | 0.57683    |   6.2 | 20.89
Other   |            | 0.05713    |            |       |  2.43

Nlocal:        1333.33 ave        1379 max        1285 min
Histogram: 4 1 2 2 1 2 4 3 3 2
Nghost:        9812.71 ave        9946 max        9675 min
Histogram: 3 1 1 5 2 3 2 2 3 2
Neighs:              0 ave           0 max           0 min
Histogram: 24 0 0 0 0 0 0 0 0 0

Total # of neighbors = 0
Ave neighs/atom = 0
Ave special neighs/atom = 7.431875
Neighbor list builds = 67
Dangerous builds = 0


---------------------------------------------------------------------
      Device Time Info (average): 
---------------------------------------------------------------------
Data Transfer:   0.0208 s.
Neighbor copy:   0.0336 s.
Neighbor build:  0.1301 s.
Force calc:      0.4268 s.
Device Overhead: 0.2158 s.
Average split:   1.0000.
Lanes / atom:    8.
Vector width:    32.
Max Mem / Proc:  7.28 MB.
CPU Neighbor:    0.0302 s.
CPU Cast/Pack:   0.0702 s.
CPU Driver_Time: 0.0173 s.
CPU Idle_Time:   0.0042 s.
---------------------------------------------------------------------



---------------------------------------------------------------------
    Device Time Info (average) for kspace: 
---------------------------------------------------------------------
Data Out:        0.0148 s.
Data In:         0.0274 s.
Kernel (map):    0.2240 s.
Kernel (rho):    0.0708 s.
Force interp:    0.1393 s.
Total rho:       0.3096 s.
Total interp:    0.1668 s.
Force copy:      0.0100 s.
Total:           0.4863 s.
CPU Poisson:     0.5403 s.
CPU Data Cast:   0.0029 s.
CPU Idle Time:   0.2772 s.
Max Mem / Proc:  0.47 MB.
---------------------------------------------------------------------

Total wall time: 0:00:33
Intel(R) VTune(TM) Profiler 2022.2.0 collection completed successfully. Use the "aps --report /home/ubuntu/lammps/bench/aps_result_20220610" command to generate textual and HTML reports for the profiling session.
