LAMMPS (7 Jan 2022)
  using 1 OpenMP thread(s) per MPI task
New timer settings: style=full  mode=sync  timeout=off
Reading data file ...
  orthogonal box = (-27.5 -38.5 -36.3646) to (27.5 38.5 36.3615)
  2 by 7 by 2 MPI processor grid
  reading atoms ...
  32000 atoms
  reading velocities ...
  32000 velocities
  scanning bonds ...
  4 = max bonds/atom
  scanning angles ...
  8 = max angles/atom
  scanning dihedrals ...
  18 = max dihedrals/atom
  scanning impropers ...
  2 = max impropers/atom
  reading bonds ...
  27723 bonds
  reading angles ...
  40467 angles
  reading dihedrals ...
  56829 dihedrals
  reading impropers ...
  1034 impropers
Finding 1-2 1-3 1-4 neighbors ...
  special bond factors lj:    0        0        0       
  special bond factors coul:  0        0        0       
     4 = max # of 1-2 neighbors
    12 = max # of 1-3 neighbors
    24 = max # of 1-4 neighbors
    26 = max # of special neighbors
  special bonds CPU = 0.009 seconds
  read_data CPU = 0.311 seconds
Replicating atoms ...
  orthogonal box = (-27.5 -38.5 -36.3646) to (82.5 115.5 109.0876)
  2 by 7 by 2 MPI processor grid
  256000 atoms
  221784 bonds
  323736 angles
  454632 dihedrals
  8272 impropers
Finding 1-2 1-3 1-4 neighbors ...
  special bond factors lj:    0        0        0       
  special bond factors coul:  0        0        0       
     4 = max # of 1-2 neighbors
    12 = max # of 1-3 neighbors
    24 = max # of 1-4 neighbors
    26 = max # of special neighbors
  special bonds CPU = 0.020 seconds
  replicate CPU = 0.062 seconds
Finding SHAKE clusters ...
   12936 = # of size 2 clusters
   29064 = # of size 3 clusters
    5976 = # of size 4 clusters
   33864 = # of frozen angles
  find clusters CPU = 0.009 seconds

CITE-CITE-CITE-CITE-CITE-CITE-CITE-CITE-CITE-CITE-CITE-CITE-CITE

Your simulation uses code contributions which should be cited:
- GPU package (short-range, long-range and three-body potentials):
The log file lists these citations in BibTeX format.

CITE-CITE-CITE-CITE-CITE-CITE-CITE-CITE-CITE-CITE-CITE-CITE-CITE

PPPM initialization ...
  using 12-bit tables for long-range coulomb (../kspace.cpp:340)
  G vector (1/distance) = 0.24587501
  grid = 48 64 60
  stencil order = 5
  estimated absolute RMS force accuracy = 0.041154918
  estimated relative force accuracy = 0.00012393681
  using single precision MKL FFT
  3d grid and FFT values/proc = 15225 9216

--------------------------------------------------------------------------
- Using acceleration for pppm:
-  with 14 proc(s) per device.
-  Horizontal vector operations: ENABLED
-  Shared memory system: No
--------------------------------------------------------------------------
Device 0: Tesla V100-SXM2-16GB, 80 CUs, 12/16 GB, 1.5 GHZ (Mixed Precision)
Device 1: Tesla V100-SXM2-16GB, 80 CUs, 1.5 GHZ (Mixed Precision)
--------------------------------------------------------------------------

Initializing Device and compiling on process 0...Done.
Initializing Devices 0-1 on core 0...Done.
Initializing Devices 0-1 on core 1...Done.
Initializing Devices 0-1 on core 2...Done.
Initializing Devices 0-1 on core 3...Done.
Initializing Devices 0-1 on core 4...Done.
Initializing Devices 0-1 on core 5...Done.
Initializing Devices 0-1 on core 6...Done.
Initializing Devices 0-1 on core 7...Done.
Initializing Devices 0-1 on core 8...Done.
Initializing Devices 0-1 on core 9...Done.
Initializing Devices 0-1 on core 10...Done.
Initializing Devices 0-1 on core 11...Done.
Initializing Devices 0-1 on core 12...Done.
Initializing Devices 0-1 on core 13...Done.


--------------------------------------------------------------------------
- Using acceleration for lj/charmm/coul/long:
-  with 14 proc(s) per device.
-  Horizontal vector operations: ENABLED
-  Shared memory system: No
--------------------------------------------------------------------------
Device 0: Tesla V100-SXM2-16GB, 80 CUs, 12/16 GB, 1.5 GHZ (Mixed Precision)
Device 1: Tesla V100-SXM2-16GB, 80 CUs, 1.5 GHZ (Mixed Precision)
--------------------------------------------------------------------------

Initializing Device and compiling on process 0...Done.
Initializing Devices 0-1 on core 0...Done.
Initializing Devices 0-1 on core 1...Done.
Initializing Devices 0-1 on core 2...Done.
Initializing Devices 0-1 on core 3...Done.
Initializing Devices 0-1 on core 4...Done.
Initializing Devices 0-1 on core 5...Done.
Initializing Devices 0-1 on core 6...Done.
Initializing Devices 0-1 on core 7...Done.
Initializing Devices 0-1 on core 8...Done.
Initializing Devices 0-1 on core 9...Done.
Initializing Devices 0-1 on core 10...Done.
Initializing Devices 0-1 on core 11...Done.
Initializing Devices 0-1 on core 12...Done.
Initializing Devices 0-1 on core 13...Done.

  generated 2278 of 2278 mixed pair_coeff terms from arithmetic mixing rule
Setting up Verlet run ...
  Unit style    : real
  Current step  : 0
  Time step     : 2
Per MPI rank memory allocation (min/avg/max) = 55.75 | 55.86 | 55.99 Mbytes
---------------- Step        0 ----- CPU =      0.0000 (sec) ----------------
TotEng   =   -202846.6818 KinEng   =    171558.6503 Temp     =       299.0288 
PotEng   =   -374405.3321 E_bond   =     20303.9521 E_angle  =     87370.9937 
E_dihed  =     41694.2920 E_impro  =      1708.0927 E_vdwl   =    -18462.9051 
E_coul   =   1630560.2223 E_long   =  -2137579.9798 Press    =      -148.7798 
Volume   =   2463960.2680 
---------------- Step       50 ----- CPU =      0.9206 (sec) ----------------
TotEng   =   -202633.4033 KinEng   =    172010.7443 Temp     =       299.8168 
PotEng   =   -374644.1477 E_bond   =     19774.3528 E_angle  =     86693.5107 
E_dihed  =     41917.8106 E_impro  =      1817.0672 E_vdwl   =    -15943.3778 
E_coul   =   1628731.1924 E_long   =  -2137634.7036 Press    =       238.5784 
Volume   =   2464254.6362 
---------------- Step      100 ----- CPU =      1.8414 (sec) ----------------
TotEng   =   -202315.0244 KinEng   =    172724.3668 Temp     =       301.0607 
PotEng   =   -375039.3912 E_bond   =     20545.2192 E_angle  =     86257.3368 
E_dihed  =     41587.6742 E_impro  =      1733.5576 E_vdwl   =    -15187.8503 
E_coul   =   1627614.4344 E_long   =  -2137589.7630 Press    =        10.9202 
Volume   =   2465078.7648 
Loop time of 1.84145 on 28 procs for 100 steps with 256000 atoms

Performance: 9.384 ns/day, 2.558 hours/ns, 54.305 timesteps/s
97.5% CPU use with 28 MPI tasks x 1 OpenMP threads

MPI task timing breakdown:
Section |  min time  |  avg time  |  max time  |%varavg|  %CPU | %total
-----------------------------------------------------------------------
Pair    | 0.29516    | 0.31669    | 0.34324    |   1.8 |  97.3 | 17.20
Bond    | 0.28403    | 0.31522    | 0.34209    |   3.3 |  99.7 | 17.12
Kspace  | 0.38722    | 0.38796    | 0.38821    |   0.0 |  96.2 | 21.07
Neigh   | 0.046289   | 0.046293   | 0.046299   |   0.0 |  98.3 |  2.51
Comm    | 0.12978    | 0.13204    | 0.13625    |   0.5 |  94.5 |  7.17
Output  | 0.00023039 | 0.00023267 | 0.00027579 |   0.0 | 100.0 |  0.01
Modify  | 0.37447    | 0.38518    | 0.43064    |   2.4 |  98.5 | 20.92
Sync    | 0.14452    | 0.23449    | 0.28928    |   5.8 |  97.3 | 12.73
Other   |            | 0.2578     |            |       |       | 14.00

Nlocal:        9142.86 ave        9206 max        9027 min
Histogram: 4 0 4 0 0 4 0 4 0 12
Nghost:          27283 ave       27484 max       27077 min
Histogram: 4 0 4 4 4 0 4 0 4 4
Neighs:              0 ave           0 max           0 min
Histogram: 28 0 0 0 0 0 0 0 0 0

Total # of neighbors = 0
Ave neighs/atom = 0
Ave special neighs/atom = 7.431875
Neighbor list builds = 11
Dangerous builds = 0


---------------------------------------------------------------------
      Device Time Info (average): 
---------------------------------------------------------------------
Data Transfer:   0.0069 s.
Neighbor copy:   0.0393 s.
Neighbor build:  0.0976 s.
Force calc:      0.3475 s.
Device Overhead: 0.1365 s.
Average split:   1.0000.
Lanes / atom:    8.
Vector width:    32.
Max Mem / Proc:  44.90 MB.
CPU Neighbor:    0.0156 s.
CPU Cast/Pack:   0.0361 s.
CPU Driver_Time: 0.0018 s.
CPU Idle_Time:   0.0234 s.
---------------------------------------------------------------------



---------------------------------------------------------------------
    Device Time Info (average) for kspace: 
---------------------------------------------------------------------
Data Out:        0.0037 s.
Data In:         0.0150 s.
Kernel (map):    0.2088 s.
Kernel (rho):    0.0140 s.
Force interp:    0.1865 s.
Total rho:       0.2264 s.
Total interp:    0.2015 s.
Force copy:      0.0043 s.
Total:           0.4322 s.
CPU Poisson:     0.2302 s.
CPU Data Cast:   0.0040 s.
CPU Idle Time:   0.1631 s.
Max Mem / Proc:  2.56 MB.
---------------------------------------------------------------------

Total wall time: 0:00:18
Intel(R) VTune(TM) Profiler 2022.1.0 collection completed successfully. Use the "aps --report /home/ubuntu/lammps/bench/aps_result_20220414" command to generate textual and HTML reports for the profiling session.
