LAMMPS (7 Jan 2022)
  using 1 OpenMP thread(s) per MPI task
Reading data file ...
  orthogonal box = (-27.5 -38.5 -36.3646) to (27.5 38.5 36.3615)
  2 by 4 by 4 MPI processor grid
  reading atoms ...
  32000 atoms
  reading velocities ...
  32000 velocities
  scanning bonds ...
  4 = max bonds/atom
  scanning angles ...
  8 = max angles/atom
  scanning dihedrals ...
  18 = max dihedrals/atom
  scanning impropers ...
  2 = max impropers/atom
  reading bonds ...
  27723 bonds
  reading angles ...
  40467 angles
  reading dihedrals ...
  56829 dihedrals
  reading impropers ...
  1034 impropers
Finding 1-2 1-3 1-4 neighbors ...
  special bond factors lj:    0        0        0       
  special bond factors coul:  0        0        0       
     4 = max # of 1-2 neighbors
    12 = max # of 1-3 neighbors
    24 = max # of 1-4 neighbors
    26 = max # of special neighbors
  special bonds CPU = 0.008 seconds
  read_data CPU = 0.649 seconds
Replicating atoms ...
  orthogonal box = (-27.5 -38.5 -36.3646) to (82.5 115.5 109.0876)
  2 by 4 by 4 MPI processor grid
  256000 atoms
  221784 bonds
  323736 angles
  454632 dihedrals
  8272 impropers
Finding 1-2 1-3 1-4 neighbors ...
  special bond factors lj:    0        0        0       
  special bond factors coul:  0        0        0       
     4 = max # of 1-2 neighbors
    12 = max # of 1-3 neighbors
    24 = max # of 1-4 neighbors
    26 = max # of special neighbors
  special bonds CPU = 0.024 seconds
  replicate CPU = 0.073 seconds
Finding SHAKE clusters ...
   12936 = # of size 2 clusters
   29064 = # of size 3 clusters
    5976 = # of size 4 clusters
   33864 = # of frozen angles
  find clusters CPU = 0.013 seconds

CITE-CITE-CITE-CITE-CITE-CITE-CITE-CITE-CITE-CITE-CITE-CITE-CITE

Your simulation uses code contributions which should be cited:
- GPU package (short-range, long-range and three-body potentials):
The log file lists these citations in BibTeX format.

CITE-CITE-CITE-CITE-CITE-CITE-CITE-CITE-CITE-CITE-CITE-CITE-CITE

PPPM initialization ...
  using 12-bit tables for long-range coulomb (../kspace.cpp:340)
  G vector (1/distance) = 0.24587501
  grid = 48 64 60
  stencil order = 5
  estimated absolute RMS force accuracy = 0.041154918
  estimated relative force accuracy = 0.00012393681
  using single precision MKL FFT
  3d grid and FFT values/proc = 12180 6144

--------------------------------------------------------------------------
- Using acceleration for pppm:
-  with 8 proc(s) per device.
-  Horizontal vector operations: ENABLED
-  Shared memory system: No
--------------------------------------------------------------------------
Device 0: Tesla V100-SXM2-16GB, 80 CUs, 13/16 GB, 1.5 GHZ (Mixed Precision)
Device 1: Tesla V100-SXM2-16GB, 80 CUs, 1.5 GHZ (Mixed Precision)
Device 2: Tesla V100-SXM2-16GB, 80 CUs, 1.5 GHZ (Mixed Precision)
Device 3: Tesla V100-SXM2-16GB, 80 CUs, 1.5 GHZ (Mixed Precision)
--------------------------------------------------------------------------

Initializing Device and compiling on process 0...Done.
Initializing Devices 0-3 on core 0...Done.
Initializing Devices 0-3 on core 1...Done.
Initializing Devices 0-3 on core 2...Done.
Initializing Devices 0-3 on core 3...Done.
Initializing Devices 0-3 on core 4...Done.
Initializing Devices 0-3 on core 5...Done.
Initializing Devices 0-3 on core 6...Done.
Initializing Devices 0-3 on core 7...Done.


--------------------------------------------------------------------------
- Using acceleration for lj/charmm/coul/long:
-  with 8 proc(s) per device.
-  Horizontal vector operations: ENABLED
-  Shared memory system: No
--------------------------------------------------------------------------
Device 0: Tesla V100-SXM2-16GB, 80 CUs, 13/16 GB, 1.5 GHZ (Mixed Precision)
Device 1: Tesla V100-SXM2-16GB, 80 CUs, 1.5 GHZ (Mixed Precision)
Device 2: Tesla V100-SXM2-16GB, 80 CUs, 1.5 GHZ (Mixed Precision)
Device 3: Tesla V100-SXM2-16GB, 80 CUs, 1.5 GHZ (Mixed Precision)
--------------------------------------------------------------------------

Initializing Device and compiling on process 0...Done.
Initializing Devices 0-3 on core 0...Done.
Initializing Devices 0-3 on core 1...Done.
Initializing Devices 0-3 on core 2...Done.
Initializing Devices 0-3 on core 3...Done.
Initializing Devices 0-3 on core 4...Done.
Initializing Devices 0-3 on core 5...Done.
Initializing Devices 0-3 on core 6...Done.
Initializing Devices 0-3 on core 7...Done.

  generated 2278 of 2278 mixed pair_coeff terms from arithmetic mixing rule
Setting up Verlet run ...
  Unit style    : real
  Current step  : 0
  Time step     : 2
Per MPI rank memory allocation (min/avg/max) = 37.65 | 37.69 | 37.7 Mbytes
---------------- Step        0 ----- CPU =      0.0000 (sec) ----------------
TotEng   =   -202846.6815 KinEng   =    171558.6503 Temp     =       299.0288 
PotEng   =   -374405.3317 E_bond   =     20303.9521 E_angle  =     87370.9937 
E_dihed  =     41694.2920 E_impro  =      1708.0927 E_vdwl   =    -18462.9051 
E_coul   =   1630560.2223 E_long   =  -2137579.9794 Press    =      -148.7798 
Volume   =   2463960.2680 
---------------- Step       50 ----- CPU =      0.6899 (sec) ----------------
TotEng   =   -202633.3807 KinEng   =    172010.7456 Temp     =       299.8168 
PotEng   =   -374644.1263 E_bond   =     19774.3527 E_angle  =     86693.5114 
E_dihed  =     41917.8104 E_impro  =      1817.0672 E_vdwl   =    -15943.3780 
E_coul   =   1628731.2130 E_long   =  -2137634.7031 Press    =       238.5804 
Volume   =   2464254.6359 
---------------- Step      100 ----- CPU =      1.3428 (sec) ----------------
TotEng   =   -202315.0532 KinEng   =    172724.4011 Temp     =       301.0607 
PotEng   =   -375039.4543 E_bond   =     20545.2210 E_angle  =     86257.3378 
E_dihed  =     41587.6739 E_impro  =      1733.5576 E_vdwl   =    -15187.8727 
E_coul   =   1627614.3900 E_long   =  -2137589.7618 Press    =        10.9130 
Volume   =   2465078.7630 
Loop time of 1.3429 on 32 procs for 100 steps with 256000 atoms

Performance: 12.868 ns/day, 1.865 hours/ns, 74.465 timesteps/s
97.0% CPU use with 32 MPI tasks x 1 OpenMP threads

MPI task timing breakdown:
Section |  min time  |  avg time  |  max time  |%varavg| %total
---------------------------------------------------------------
Pair    | 0.14033    | 0.16398    | 0.18728    |   3.1 | 12.21
Bond    | 0.27345    | 0.29321    | 0.32461    |   2.6 | 21.83
Kspace  | 0.28052    | 0.3113     | 0.33533    |   2.9 | 23.18
Neigh   | 0.040466   | 0.041918   | 0.042869   |   0.3 |  3.12
Comm    | 0.11105    | 0.11937    | 0.14056    |   2.2 |  8.89
Output  | 0.00022091 | 0.0002242  | 0.00026733 |   0.0 |  0.02
Modify  | 0.33222    | 0.38508    | 0.40903    |   2.9 | 28.68
Other   |            | 0.02782    |            |       |  2.07

Nlocal:           8000 ave        8143 max        7933 min
Histogram: 8 16 0 0 0 0 0 0 0 8
Nghost:        22735.5 ave       22770 max       22697 min
Histogram: 8 0 0 0 0 16 0 0 0 8
Neighs:              0 ave           0 max           0 min
Histogram: 32 0 0 0 0 0 0 0 0 0

Total # of neighbors = 0
Ave neighs/atom = 0
Ave special neighs/atom = 7.431875
Neighbor list builds = 11
Dangerous builds = 0


---------------------------------------------------------------------
      Device Time Info (average): 
---------------------------------------------------------------------
Data Transfer:   0.0072 s.
Neighbor copy:   0.0373 s.
Neighbor build:  0.0570 s.
Force calc:      0.2015 s.
Device Overhead: 0.0899 s.
Average split:   1.0000.
Lanes / atom:    8.
Vector width:    32.
Max Mem / Proc:  38.51 MB.
CPU Neighbor:    0.0296 s.
CPU Cast/Pack:   0.0331 s.
CPU Driver_Time: 0.0028 s.
CPU Idle_Time:   0.0013 s.
---------------------------------------------------------------------



---------------------------------------------------------------------
    Device Time Info (average) for kspace: 
---------------------------------------------------------------------
Data Out:        0.0044 s.
Data In:         0.0284 s.
Kernel (map):    0.1252 s.
Kernel (rho):    0.0152 s.
Force interp:    0.0573 s.
Total rho:       0.1447 s.
Total interp:    0.0857 s.
Force copy:      0.0055 s.
Total:           0.2359 s.
CPU Poisson:     0.2256 s.
CPU Data Cast:   0.0041 s.
CPU Idle Time:   0.0800 s.
Max Mem / Proc:  2.11 MB.
---------------------------------------------------------------------

Total wall time: 0:00:45
Intel(R) VTune(TM) Profiler 2022.2.0 collection completed successfully. Use the "aps --report /home/ubuntu/lammps/bench/aps_result_20220530" command to generate textual and HTML reports for the profiling session.
