LAMMPS (7 Jan 2022)
  using 1 OpenMP thread(s) per MPI task
Reading data file ...
  orthogonal box = (-27.5 -38.5 -36.3646) to (27.5 38.5 36.3615)
  3 by 4 by 4 MPI processor grid
  reading atoms ...
  32000 atoms
  reading velocities ...
  32000 velocities
  scanning bonds ...
  4 = max bonds/atom
  scanning angles ...
  8 = max angles/atom
  scanning dihedrals ...
  18 = max dihedrals/atom
  scanning impropers ...
  2 = max impropers/atom
  reading bonds ...
  27723 bonds
  reading angles ...
  40467 angles
  reading dihedrals ...
  56829 dihedrals
  reading impropers ...
  1034 impropers
Finding 1-2 1-3 1-4 neighbors ...
  special bond factors lj:    0        0        0       
  special bond factors coul:  0        0        0       
     4 = max # of 1-2 neighbors
    12 = max # of 1-3 neighbors
    24 = max # of 1-4 neighbors
    26 = max # of special neighbors
  special bonds CPU = 0.007 seconds
  read_data CPU = 0.422 seconds
Replicating atoms ...
  orthogonal box = (-27.5 -38.5 -36.3646) to (137.5 192.5 181.8137)
  3 by 4 by 4 MPI processor grid
  864000 atoms
  748521 bonds
  1092609 angles
  1534383 dihedrals
  27918 impropers
Finding 1-2 1-3 1-4 neighbors ...
  special bond factors lj:    0        0        0       
  special bond factors coul:  0        0        0       
     4 = max # of 1-2 neighbors
    12 = max # of 1-3 neighbors
    24 = max # of 1-4 neighbors
    26 = max # of special neighbors
  special bonds CPU = 0.045 seconds
  replicate CPU = 0.107 seconds
Finding SHAKE clusters ...
   43659 = # of size 2 clusters
   98091 = # of size 3 clusters
   20169 = # of size 4 clusters
  114291 = # of frozen angles
  find clusters CPU = 0.025 seconds

CITE-CITE-CITE-CITE-CITE-CITE-CITE-CITE-CITE-CITE-CITE-CITE-CITE

Your simulation uses code contributions which should be cited:
- GPU package (short-range, long-range and three-body potentials):
The log file lists these citations in BibTeX format.

CITE-CITE-CITE-CITE-CITE-CITE-CITE-CITE-CITE-CITE-CITE-CITE-CITE

PPPM initialization ...
  using 12-bit tables for long-range coulomb (../kspace.cpp:340)
  G vector (1/distance) = 0.24587501
  grid = 72 96 90
  stencil order = 5
  estimated absolute RMS force accuracy = 0.041154918
  estimated relative force accuracy = 0.00012393681
  using single precision MKL FFT
  3d grid and FFT values/proc = 23548 13824

--------------------------------------------------------------------------
- Using acceleration for pppm:
-  with 8 proc(s) per device.
-  Horizontal vector operations: ENABLED
-  Shared memory system: No
--------------------------------------------------------------------------
Device 0: Tesla V100-SXM2-16GB, 80 CUs, 13/16 GB, 1.5 GHZ (Double Precision)
Device 1: Tesla V100-SXM2-16GB, 80 CUs, 1.5 GHZ (Double Precision)
Device 2: Tesla V100-SXM2-16GB, 80 CUs, 1.5 GHZ (Double Precision)
Device 3: Tesla V100-SXM2-16GB, 80 CUs, 1.5 GHZ (Double Precision)
Device 4: Tesla V100-SXM2-16GB, 80 CUs, 1.5 GHZ (Double Precision)
Device 5: Tesla V100-SXM2-16GB, 80 CUs, 1.5 GHZ (Double Precision)
--------------------------------------------------------------------------

Initializing Device and compiling on process 0...Done.
Initializing Devices 0-5 on core 0...Done.
Initializing Devices 0-5 on core 1...Done.
Initializing Devices 0-5 on core 2...Done.
Initializing Devices 0-5 on core 3...Done.
Initializing Devices 0-5 on core 4...Done.
Initializing Devices 0-5 on core 5...Done.
Initializing Devices 0-5 on core 6...Done.
Initializing Devices 0-5 on core 7...Done.


--------------------------------------------------------------------------
- Using acceleration for lj/charmm/coul/long:
-  with 8 proc(s) per device.
-  Horizontal vector operations: ENABLED
-  Shared memory system: No
--------------------------------------------------------------------------
Device 0: Tesla V100-SXM2-16GB, 80 CUs, 13/16 GB, 1.5 GHZ (Double Precision)
Device 1: Tesla V100-SXM2-16GB, 80 CUs, 1.5 GHZ (Double Precision)
Device 2: Tesla V100-SXM2-16GB, 80 CUs, 1.5 GHZ (Double Precision)
Device 3: Tesla V100-SXM2-16GB, 80 CUs, 1.5 GHZ (Double Precision)
Device 4: Tesla V100-SXM2-16GB, 80 CUs, 1.5 GHZ (Double Precision)
Device 5: Tesla V100-SXM2-16GB, 80 CUs, 1.5 GHZ (Double Precision)
--------------------------------------------------------------------------

Initializing Device and compiling on process 0...Done.
Initializing Devices 0-5 on core 0...Done.
Initializing Devices 0-5 on core 1...Done.
Initializing Devices 0-5 on core 2...Done.
Initializing Devices 0-5 on core 3...Done.
Initializing Devices 0-5 on core 4...Done.
Initializing Devices 0-5 on core 5...Done.
Initializing Devices 0-5 on core 6...Done.
Initializing Devices 0-5 on core 7...Done.

  generated 2278 of 2278 mixed pair_coeff terms from arithmetic mixing rule
Setting up Verlet run ...
  Unit style    : real
  Current step  : 0
  Time step     : 2
Per MPI rank memory allocation (min/avg/max) = 76.67 | 76.69 | 76.73 Mbytes
---------------- Step        0 ----- CPU =      0.0000 (sec) ----------------
TotEng   =   -684607.4746 KinEng   =    579010.4447 Temp     =       299.0277 
PotEng   =  -1263617.9192 E_bond   =     68525.8383 E_angle  =    294877.1036 
E_dihed  =    140718.2355 E_impro  =      5764.8128 E_vdwl   =    -62312.3122 
E_coul   =   5503140.8252 E_long   =  -7214332.4225 Press    =      -148.7691 
Volume   =   8315865.9045 
---------------- Step       50 ----- CPU =      1.5307 (sec) ----------------
TotEng   =   -683885.6774 KinEng   =    580537.2955 Temp     =       299.8162 
PotEng   =  -1264422.9728 E_bond   =     66738.5300 E_angle  =    292590.9686 
E_dihed  =    141472.6763 E_impro  =      6132.6105 E_vdwl   =    -53808.7555 
E_coul   =   5496968.1110 E_long   =  -7214517.1138 Press    =       238.5920 
Volume   =   8316859.4057 
---------------- Step      100 ----- CPU =      3.0780 (sec) ----------------
TotEng   =   -682807.2904 KinEng   =    582947.6834 Temp     =       301.0611 
PotEng   =  -1265754.9738 E_bond   =     69340.3868 E_angle  =    291119.5794 
E_dihed  =    140358.6042 E_impro  =      5850.7811 E_vdwl   =    -51258.4737 
E_coul   =   5493199.5703 E_long   =  -7214365.4220 Press    =        10.9532 
Volume   =   8319641.0296 
Loop time of 3.07802 on 48 procs for 100 steps with 864000 atoms

Performance: 5.614 ns/day, 4.275 hours/ns, 32.488 timesteps/s
96.5% CPU use with 48 MPI tasks x 1 OpenMP threads

MPI task timing breakdown:
Section |  min time  |  avg time  |  max time  |%varavg| %total
---------------------------------------------------------------
Pair    | 0.27447    | 0.35366    | 0.42778    |   9.7 | 11.49
Bond    | 0.49989    | 0.64484    | 0.79007    |  13.5 | 20.95
Kspace  | 0.50968    | 0.66595    | 0.83462    |  13.8 | 21.64
Neigh   | 0.14295    | 0.14779    | 0.15056    |   0.5 |  4.80
Comm    | 0.27358    | 0.28807    | 0.33685    |   2.9 |  9.36
Output  | 0.00032493 | 0.00034275 | 0.00038914 |   0.0 |  0.01
Modify  | 0.77598    | 0.90752    | 0.96717    |   4.8 | 29.48
Other   |            | 0.06985    |            |       |  2.27

Nlocal:          18000 ave       18185 max       17782 min
Histogram: 3 0 6 9 3 9 3 9 3 3
Nghost:        34692.2 ave       34888 max       34424 min
Histogram: 6 0 0 6 9 3 3 9 3 9
Neighs:              0 ave           0 max           0 min
Histogram: 48 0 0 0 0 0 0 0 0 0

Total # of neighbors = 0
Ave neighs/atom = 0
Ave special neighs/atom = 7.431875
Neighbor list builds = 11
Dangerous builds = 0


---------------------------------------------------------------------
      Device Time Info (average): 
---------------------------------------------------------------------
Data Transfer:   0.0134 s.
Neighbor copy:   0.0763 s.
Neighbor build:  0.0915 s.
Force calc:      0.3695 s.
Device Overhead: 0.0886 s.
Average split:   1.0000.
Lanes / atom:    8.
Vector width:    32.
Max Mem / Proc:  87.77 MB.
CPU Neighbor:    0.0806 s.
CPU Cast/Pack:   0.1512 s.
CPU Driver_Time: 0.0032 s.
CPU Idle_Time:   0.0065 s.
---------------------------------------------------------------------



---------------------------------------------------------------------
    Device Time Info (average) for kspace: 
---------------------------------------------------------------------
Data Out:        0.0097 s.
Data In:         0.0473 s.
Kernel (map):    0.1717 s.
Kernel (rho):    0.0172 s.
Force interp:    0.0844 s.
Total rho:       0.1987 s.
Total interp:    0.1317 s.
Force copy:      0.0132 s.
Total:           0.3436 s.
CPU Poisson:     0.5654 s.
CPU Data Cast:   0.0149 s.
CPU Idle Time:   0.1101 s.
Max Mem / Proc:  4.63 MB.
---------------------------------------------------------------------

Total wall time: 0:01:07
Intel(R) VTune(TM) Profiler 2022.2.0 collection completed successfully. Use the "aps --report /home/ubuntu/lammps/bench/aps_result_20220610" command to generate textual and HTML reports for the profiling session.
