LAMMPS (7 Jan 2022)
  using 1 OpenMP thread(s) per MPI task
Reading data file ...
  orthogonal box = (-27.5 -38.5 -36.3646) to (27.5 38.5 36.3615)
  1 by 3 by 2 MPI processor grid
  reading atoms ...
  32000 atoms
  reading velocities ...
  32000 velocities
  scanning bonds ...
  4 = max bonds/atom
  scanning angles ...
  8 = max angles/atom
  scanning dihedrals ...
  18 = max dihedrals/atom
  scanning impropers ...
  2 = max impropers/atom
  reading bonds ...
  27723 bonds
  reading angles ...
  40467 angles
  reading dihedrals ...
  56829 dihedrals
  reading impropers ...
  1034 impropers
Finding 1-2 1-3 1-4 neighbors ...
  special bond factors lj:    0        0        0       
  special bond factors coul:  0        0        0       
     4 = max # of 1-2 neighbors
    12 = max # of 1-3 neighbors
    24 = max # of 1-4 neighbors
    26 = max # of special neighbors
  special bonds CPU = 0.006 seconds
  read_data CPU = 0.387 seconds
Finding SHAKE clusters ...
    1617 = # of size 2 clusters
    3633 = # of size 3 clusters
     747 = # of size 4 clusters
    4233 = # of frozen angles
  find clusters CPU = 0.004 seconds

CITE-CITE-CITE-CITE-CITE-CITE-CITE-CITE-CITE-CITE-CITE-CITE-CITE

Your simulation uses code contributions which should be cited:
- GPU package (short-range, long-range and three-body potentials):
The log file lists these citations in BibTeX format.

CITE-CITE-CITE-CITE-CITE-CITE-CITE-CITE-CITE-CITE-CITE-CITE-CITE

PPPM initialization ...
  using 12-bit tables for long-range coulomb (../kspace.cpp:340)
  G vector (1/distance) = 0.24883488
  grid = 25 32 32
  stencil order = 5
  estimated absolute RMS force accuracy = 0.035547797
  estimated relative force accuracy = 0.00010705113
  using single precision MKL FFT
  3d grid and FFT values/proc = 10710 4800

--------------------------------------------------------------------------
- Using acceleration for pppm:
-  with 6 proc(s) per device.
-  Horizontal vector operations: ENABLED
-  Shared memory system: No
--------------------------------------------------------------------------
Device 0: Tesla V100-SXM2-16GB, 80 CUs, 14/16 GB, 1.5 GHZ (Single Precision)
--------------------------------------------------------------------------

Initializing Device and compiling on process 0...Done.
Initializing Device 0 on core 0...Done.
Initializing Device 0 on core 1...Done.
Initializing Device 0 on core 2...Done.
Initializing Device 0 on core 3...Done.
Initializing Device 0 on core 4...Done.
Initializing Device 0 on core 5...Done.


--------------------------------------------------------------------------
- Using acceleration for lj/charmm/coul/long:
-  with 6 proc(s) per device.
-  Horizontal vector operations: ENABLED
-  Shared memory system: No
--------------------------------------------------------------------------
Device 0: Tesla V100-SXM2-16GB, 80 CUs, 14/16 GB, 1.5 GHZ (Single Precision)
--------------------------------------------------------------------------

Initializing Device and compiling on process 0...Done.
Initializing Device 0 on core 0...Done.
Initializing Device 0 on core 1...Done.
Initializing Device 0 on core 2...Done.
Initializing Device 0 on core 3...Done.
Initializing Device 0 on core 4...Done.
Initializing Device 0 on core 5...Done.

  generated 2278 of 2278 mixed pair_coeff terms from arithmetic mixing rule
Setting up Verlet run ...
  Unit style    : real
  Current step  : 0
  Time step     : 2
Per MPI rank memory allocation (min/avg/max) = 36.02 | 36.13 | 36.28 Mbytes
---------------- Step        0 ----- CPU =      0.0000 (sec) ----------------
TotEng   =    -25356.2680 KinEng   =     21444.8313 Temp     =       299.0397 
PotEng   =    -46801.0993 E_bond   =      2537.9940 E_angle  =     10921.3742 
E_dihed  =      5211.7865 E_impro  =       213.5116 E_vdwl   =     -2307.8635 
E_coul   =    207025.8399 E_long   =   -270403.7421 Press    =      -149.3322 
Volume   =    307995.0335 
---------------- Step       50 ----- CPU =      0.3618 (sec) ----------------
TotEng   =    -25330.0897 KinEng   =     21500.9982 Temp     =       299.8229 
PotEng   =    -46831.0879 E_bond   =      2471.7037 E_angle  =     10836.5110 
E_dihed  =      5239.6319 E_impro  =       227.1219 E_vdwl   =     -1993.2901 
E_coul   =    206797.6348 E_long   =   -270410.4011 Press    =       237.6500 
Volume   =    308031.6776 
---------------- Step      100 ----- CPU =      0.7147 (sec) ----------------
TotEng   =    -25290.7949 KinEng   =     21591.9064 Temp     =       301.0906 
PotEng   =    -46882.7014 E_bond   =      2567.9810 E_angle  =     10781.9581 
E_dihed  =      5198.7494 E_impro  =       216.7865 E_vdwl   =     -1902.6663 
E_coul   =    206659.4721 E_long   =   -270404.9821 Press    =         6.7254 
Volume   =    308134.2322 
---------------- Step      150 ----- CPU =      1.0586 (sec) ----------------
TotEng   =    -25258.0933 KinEng   =     21529.6612 Temp     =       300.2226 
PotEng   =    -46787.7545 E_bond   =      2556.3454 E_angle  =     10852.7825 
E_dihed  =      5265.2326 E_impro  =       203.0689 E_vdwl   =     -2066.1646 
E_coul   =    206797.4681 E_long   =   -270396.4874 Press    =       251.4812 
Volume   =    308515.2417 
---------------- Step      200 ----- CPU =      1.4110 (sec) ----------------
TotEng   =    -25078.8620 KinEng   =     21571.1085 Temp     =       300.8006 
PotEng   =    -46649.9704 E_bond   =      2488.6933 E_angle  =     11073.4425 
E_dihed  =      5221.7515 E_impro  =       232.8574 E_vdwl   =     -2167.5914 
E_coul   =    206903.0004 E_long   =   -270402.1241 Press    =        20.8906 
Volume   =    308997.5293 
---------------- Step      250 ----- CPU =      1.7694 (sec) ----------------
TotEng   =    -24944.3152 KinEng   =     21547.8100 Temp     =       300.4757 
PotEng   =    -46492.1252 E_bond   =      2542.5542 E_angle  =     11105.5158 
E_dihed  =      5239.6394 E_impro  =       212.3494 E_vdwl   =     -2168.8663 
E_coul   =    206988.8665 E_long   =   -270412.1843 Press    =      -169.8803 
Volume   =    309388.0980 
---------------- Step      300 ----- CPU =      2.1139 (sec) ----------------
TotEng   =    -24999.6187 KinEng   =     21497.0370 Temp     =       299.7677 
PotEng   =    -46496.6557 E_bond   =      2557.9429 E_angle  =     10921.8915 
E_dihed  =      5211.0393 E_impro  =       222.1564 E_vdwl   =     -2216.8961 
E_coul   =    207193.7735 E_long   =   -270386.5633 Press    =      -368.6399 
Volume   =    309663.7517 
---------------- Step      350 ----- CPU =      2.4718 (sec) ----------------
TotEng   =    -25129.9593 KinEng   =     21469.4035 Temp     =       299.3823 
PotEng   =    -46599.3627 E_bond   =      2580.5492 E_angle  =     10951.1346 
E_dihed  =      5250.6577 E_impro  =       212.6911 E_vdwl   =     -2169.5165 
E_coul   =    206975.8987 E_long   =   -270400.7774 Press    =      -334.5459 
Volume   =    309801.4685 
---------------- Step      400 ----- CPU =      2.8306 (sec) ----------------
TotEng   =    -25204.1727 KinEng   =     21432.0314 Temp     =       298.8612 
PotEng   =    -46636.2041 E_bond   =      2525.5923 E_angle  =     10966.0607 
E_dihed  =      5205.7757 E_impro  =       213.2594 E_vdwl   =     -2182.0050 
E_coul   =    207047.9395 E_long   =   -270412.8266 Press    =       190.8478 
Volume   =    309816.6173 
---------------- Step      450 ----- CPU =      3.1862 (sec) ----------------
TotEng   =    -25146.9080 KinEng   =     21492.9782 Temp     =       299.7111 
PotEng   =    -46639.8862 E_bond   =      2499.1971 E_angle  =     10958.5770 
E_dihed  =      5239.5518 E_impro  =       225.8376 E_vdwl   =     -2249.0411 
E_coul   =    207075.5665 E_long   =   -270389.5750 Press    =       181.8062 
Volume   =    309771.4993 
---------------- Step      500 ----- CPU =      3.5338 (sec) ----------------
TotEng   =    -24952.3515 KinEng   =     21587.2494 Temp     =       301.0256 
PotEng   =    -46539.6009 E_bond   =      2570.1690 E_angle  =     10946.9627 
E_dihed  =      5262.0523 E_impro  =       218.6841 E_vdwl   =     -2156.0479 
E_coul   =    207024.4458 E_long   =   -270405.8669 Press    =      -232.8564 
Volume   =    309757.7039 
---------------- Step      550 ----- CPU =      3.8882 (sec) ----------------
TotEng   =    -24858.4813 KinEng   =     21601.5252 Temp     =       301.2247 
PotEng   =    -46460.0065 E_bond   =      2516.7596 E_angle  =     10950.3590 
E_dihed  =      5207.2805 E_impro  =       224.7966 E_vdwl   =     -2273.5277 
E_coul   =    207306.3639 E_long   =   -270392.0384 Press    =       203.8504 
Volume   =    309762.9250 
---------------- Step      600 ----- CPU =      4.2376 (sec) ----------------
TotEng   =    -24862.7759 KinEng   =     21745.8026 Temp     =       303.2366 
PotEng   =    -46608.5785 E_bond   =      2573.7517 E_angle  =     10903.9649 
E_dihed  =      5251.9248 E_impro  =       225.5963 E_vdwl   =     -2071.8397 
E_coul   =    206897.8430 E_long   =   -270389.8196 Press    =       147.3000 
Volume   =    309912.9561 
Loop time of 4.23768 on 6 procs for 600 steps with 32000 atoms

Performance: 24.466 ns/day, 0.981 hours/ns, 141.587 timesteps/s
98.6% CPU use with 6 MPI tasks x 1 OpenMP threads

MPI task timing breakdown:
Section |  min time  |  avg time  |  max time  |%varavg| %total
---------------------------------------------------------------
Pair    | 0.46838    | 0.53169    | 0.59529    |   5.8 | 12.55
Bond    | 1.1258     | 1.2036     | 1.2657     |   4.7 | 28.40
Kspace  | 0.80328    | 0.86631    | 0.95864    |   6.2 | 20.44
Neigh   | 0.08769    | 0.090262   | 0.091928   |   0.6 |  2.13
Comm    | 0.2814     | 0.30892    | 0.3284     |   3.1 |  7.29
Output  | 0.00084708 | 0.0008961  | 0.0011311  |   0.0 |  0.02
Modify  | 1.0981     | 1.1702     | 1.2664     |   5.8 | 27.61
Other   |            | 0.06578    |            |       |  1.55

Nlocal:        5333.33 ave        5425 max        5244 min
Histogram: 1 1 0 1 0 0 1 0 1 1
Nghost:        19057.5 ave       19139 max       18968 min
Histogram: 1 1 0 0 0 1 0 2 0 1
Neighs:              0 ave           0 max           0 min
Histogram: 6 0 0 0 0 0 0 0 0 0

Total # of neighbors = 0
Ave neighs/atom = 0
Ave special neighs/atom = 7.431875
Neighbor list builds = 66
Dangerous builds = 0


---------------------------------------------------------------------
      Device Time Info (average): 
---------------------------------------------------------------------
Data Transfer:   0.0220 s.
Neighbor copy:   0.0385 s.
Neighbor build:  0.2210 s.
Force calc:      0.8150 s.
Device Overhead: 0.4134 s.
Average split:   1.0000.
Lanes / atom:    8.
Vector width:    32.
Max Mem / Proc:  26.06 MB.
CPU Neighbor:    0.0343 s.
CPU Cast/Pack:   0.1015 s.
CPU Driver_Time: 0.0179 s.
CPU Idle_Time:   0.0090 s.
---------------------------------------------------------------------



---------------------------------------------------------------------
    Device Time Info (average) for kspace: 
---------------------------------------------------------------------
Data Out:        0.0148 s.
Data In:         0.0578 s.
Kernel (map):    0.5106 s.
Kernel (rho):    0.0770 s.
Force interp:    0.2704 s.
Total rho:       0.6023 s.
Total interp:    0.3282 s.
Force copy:      0.0127 s.
Total:           0.9432 s.
CPU Poisson:     0.5422 s.
CPU Data Cast:   0.0102 s.
CPU Idle Time:   0.2908 s.
Max Mem / Proc:  1.37 MB.
---------------------------------------------------------------------

Total wall time: 0:00:11
Intel(R) VTune(TM) Profiler 2022.2.0 collection completed successfully. Use the "aps --report /home/ubuntu/lammps/bench/aps_result_20220609" command to generate textual and HTML reports for the profiling session.
