LAMMPS (7 Jan 2022)
  using 1 OpenMP thread(s) per MPI task
Reading data file ...
  orthogonal box = (-27.5 -38.5 -36.3646) to (27.5 38.5 36.3615)
  2 by 7 by 2 MPI processor grid
  reading atoms ...
  32000 atoms
  reading velocities ...
  32000 velocities
  scanning bonds ...
  4 = max bonds/atom
  scanning angles ...
  8 = max angles/atom
  scanning dihedrals ...
  18 = max dihedrals/atom
  scanning impropers ...
  2 = max impropers/atom
  reading bonds ...
  27723 bonds
  reading angles ...
  40467 angles
  reading dihedrals ...
  56829 dihedrals
  reading impropers ...
  1034 impropers
Finding 1-2 1-3 1-4 neighbors ...
  special bond factors lj:    0        0        0       
  special bond factors coul:  0        0        0       
     4 = max # of 1-2 neighbors
    12 = max # of 1-3 neighbors
    24 = max # of 1-4 neighbors
    26 = max # of special neighbors
  special bonds CPU = 0.009 seconds
  read_data CPU = 0.424 seconds
Replicating atoms ...
  orthogonal box = (-27.5 -38.5 -36.3646) to (82.5 115.5 109.0876)
  2 by 7 by 2 MPI processor grid
  256000 atoms
  221784 bonds
  323736 angles
  454632 dihedrals
  8272 impropers
Finding 1-2 1-3 1-4 neighbors ...
  special bond factors lj:    0        0        0       
  special bond factors coul:  0        0        0       
     4 = max # of 1-2 neighbors
    12 = max # of 1-3 neighbors
    24 = max # of 1-4 neighbors
    26 = max # of special neighbors
  special bonds CPU = 0.020 seconds
  replicate CPU = 0.064 seconds
Finding SHAKE clusters ...
   12936 = # of size 2 clusters
   29064 = # of size 3 clusters
    5976 = # of size 4 clusters
   33864 = # of frozen angles
  find clusters CPU = 0.009 seconds

CITE-CITE-CITE-CITE-CITE-CITE-CITE-CITE-CITE-CITE-CITE-CITE-CITE

Your simulation uses code contributions which should be cited:
- GPU package (short-range, long-range and three-body potentials):
The log file lists these citations in BibTeX format.

CITE-CITE-CITE-CITE-CITE-CITE-CITE-CITE-CITE-CITE-CITE-CITE-CITE

PPPM initialization ...
  using 12-bit tables for long-range coulomb (../kspace.cpp:340)
  G vector (1/distance) = 0.28895511
  grid = 80 108 100
  stencil order = 5
  estimated absolute RMS force accuracy = 0.0041094504
  estimated relative force accuracy = 1.2375488e-05
  using single precision MKL FFT
  3d grid and FFT values/proc = 58938 34560

--------------------------------------------------------------------------
- Using acceleration for pppm:
-  with 14 proc(s) per device.
-  Horizontal vector operations: ENABLED
-  Shared memory system: No
--------------------------------------------------------------------------
Device 0: Tesla V100-SXM2-16GB, 80 CUs, 12/16 GB, 1.5 GHZ (Mixed Precision)
Device 1: Tesla V100-SXM2-16GB, 80 CUs, 1.5 GHZ (Mixed Precision)
--------------------------------------------------------------------------

Initializing Device and compiling on process 0...Done.
Initializing Devices 0-1 on core 0...Done.
Initializing Devices 0-1 on core 1...Done.
Initializing Devices 0-1 on core 2...Done.
Initializing Devices 0-1 on core 3...Done.
Initializing Devices 0-1 on core 4...Done.
Initializing Devices 0-1 on core 5...Done.
Initializing Devices 0-1 on core 6...Done.
Initializing Devices 0-1 on core 7...Done.
Initializing Devices 0-1 on core 8...Done.
Initializing Devices 0-1 on core 9...Done.
Initializing Devices 0-1 on core 10...Done.
Initializing Devices 0-1 on core 11...Done.
Initializing Devices 0-1 on core 12...Done.
Initializing Devices 0-1 on core 13...Done.


--------------------------------------------------------------------------
- Using acceleration for lj/charmm/coul/long:
-  with 14 proc(s) per device.
-  Horizontal vector operations: ENABLED
-  Shared memory system: No
--------------------------------------------------------------------------
Device 0: Tesla V100-SXM2-16GB, 80 CUs, 11/16 GB, 1.5 GHZ (Mixed Precision)
Device 1: Tesla V100-SXM2-16GB, 80 CUs, 1.5 GHZ (Mixed Precision)
--------------------------------------------------------------------------

Initializing Device and compiling on process 0...Done.
Initializing Devices 0-1 on core 0...Done.
Initializing Devices 0-1 on core 1...Done.
Initializing Devices 0-1 on core 2...Done.
Initializing Devices 0-1 on core 3...Done.
Initializing Devices 0-1 on core 4...Done.
Initializing Devices 0-1 on core 5...Done.
Initializing Devices 0-1 on core 6...Done.
Initializing Devices 0-1 on core 7...Done.
Initializing Devices 0-1 on core 8...Done.
Initializing Devices 0-1 on core 9...Done.
Initializing Devices 0-1 on core 10...Done.
Initializing Devices 0-1 on core 11...Done.
Initializing Devices 0-1 on core 12...Done.
Initializing Devices 0-1 on core 13...Done.

  generated 2278 of 2278 mixed pair_coeff terms from arithmetic mixing rule
Setting up Verlet run ...
  Unit style    : real
  Current step  : 0
  Time step     : 2
Per MPI rank memory allocation (min/avg/max) = 58.19 | 58.56 | 58.83 Mbytes
---------------- Step        0 ----- CPU =      0.0000 (sec) ----------------
TotEng   =   -202869.6469 KinEng   =    171558.6503 Temp     =       299.0288 
PotEng   =   -374428.2971 E_bond   =     20303.9521 E_angle  =     87370.9937 
E_dihed  =     41694.2920 E_impro  =      1708.0927 E_vdwl   =    -18462.9051 
E_coul   =   2003375.5184 E_long   =  -2510418.2409 Press    =      -152.7300 
Volume   =   2463960.2680 
---------------- Step       50 ----- CPU =      1.3099 (sec) ----------------
TotEng   =   -202660.2679 KinEng   =    172011.0586 Temp     =       299.8174 
PotEng   =   -374671.3266 E_bond   =     19773.4056 E_angle  =     86693.8005 
E_dihed  =     41915.9107 E_impro  =      1817.0823 E_vdwl   =    -15940.1703 
E_coul   =   2001571.7224 E_long   =  -2510503.0777 Press    =       235.0635 
Volume   =   2464248.9088 
---------------- Step      100 ----- CPU =      2.6153 (sec) ----------------
TotEng   =   -202302.8294 KinEng   =    172714.1164 Temp     =       301.0428 
PotEng   =   -375016.9457 E_bond   =     20543.3036 E_angle  =     86254.3978 
E_dihed  =     41589.1717 E_impro  =      1734.4904 E_vdwl   =    -15204.4782 
E_coul   =   2000519.3288 E_long   =  -2510453.1598 Press    =        12.6015 
Volume   =   2465059.5970 
Loop time of 2.61544 on 28 procs for 100 steps with 256000 atoms

Performance: 6.607 ns/day, 3.633 hours/ns, 38.234 timesteps/s
96.8% CPU use with 28 MPI tasks x 1 OpenMP threads

MPI task timing breakdown:
Section |  min time  |  avg time  |  max time  |%varavg| %total
---------------------------------------------------------------
Pair    | 0.26234    | 0.29868    | 0.3377     |   3.6 | 11.42
Bond    | 0.2945     | 0.32671    | 0.35668    |   3.4 | 12.49
Kspace  | 0.87068    | 0.8982     | 0.94013    |   2.3 | 34.34
Neigh   | 0.053795   | 0.055008   | 0.056089   |   0.3 |  2.10
Comm    | 0.13806    | 0.16862    | 0.2144     |   6.1 |  6.45
Output  | 0.00025354 | 0.00025689 | 0.00030539 |   0.0 |  0.01
Modify  | 0.70891    | 0.79915    | 0.87645    |   6.4 | 30.55
Other   |            | 0.06882    |            |       |  2.63

Nlocal:        9142.86 ave        9208 max        9027 min
Histogram: 4 0 4 0 0 4 0 4 0 12
Nghost:        27275.7 ave       27472 max       27077 min
Histogram: 4 0 4 4 4 0 4 0 4 4
Neighs:              0 ave           0 max           0 min
Histogram: 28 0 0 0 0 0 0 0 0 0

Total # of neighbors = 0
Ave neighs/atom = 0
Ave special neighs/atom = 7.431875
Neighbor list builds = 11
Dangerous builds = 0


---------------------------------------------------------------------
      Device Time Info (average): 
---------------------------------------------------------------------
Data Transfer:   0.0073 s.
Neighbor copy:   0.0404 s.
Neighbor build:  0.0973 s.
Force calc:      0.3311 s.
Device Overhead: 0.1423 s.
Average split:   1.0000.
Lanes / atom:    8.
Vector width:    32.
Max Mem / Proc:  44.90 MB.
CPU Neighbor:    0.0219 s.
CPU Cast/Pack:   0.0374 s.
CPU Driver_Time: 0.0028 s.
CPU Idle_Time:   0.0011 s.
---------------------------------------------------------------------



---------------------------------------------------------------------
    Device Time Info (average) for kspace: 
---------------------------------------------------------------------
Data Out:        0.0061 s.
Data In:         0.1185 s.
Kernel (map):    0.2173 s.
Kernel (rho):    0.0138 s.
Force interp:    0.1039 s.
Total rho:       0.2373 s.
Total interp:    0.2224 s.
Force copy:      0.0081 s.
Total:           0.4678 s.
CPU Poisson:     0.7260 s.
CPU Data Cast:   0.0045 s.
CPU Idle Time:   0.1824 s.
Max Mem / Proc:  8.47 MB.
---------------------------------------------------------------------

Total wall time: 0:00:38
Intel(R) VTune(TM) Profiler 2022.2.0 collection completed successfully. Use the "aps --report /home/ubuntu/lammps/bench/aps_result_20220531" command to generate textual and HTML reports for the profiling session.
