LAMMPS (7 Jan 2022)
  using 1 OpenMP thread(s) per MPI task
Reading data file ...
  orthogonal box = (-27.5 -38.5 -36.3646) to (27.5 38.5 36.3615)
  2 by 3 by 2 MPI processor grid
  reading atoms ...
  32000 atoms
  reading velocities ...
  32000 velocities
  scanning bonds ...
  4 = max bonds/atom
  scanning angles ...
  8 = max angles/atom
  scanning dihedrals ...
  18 = max dihedrals/atom
  scanning impropers ...
  2 = max impropers/atom
  reading bonds ...
  27723 bonds
  reading angles ...
  40467 angles
  reading dihedrals ...
  56829 dihedrals
  reading impropers ...
  1034 impropers
Finding 1-2 1-3 1-4 neighbors ...
  special bond factors lj:    0        0        0       
  special bond factors coul:  0        0        0       
     4 = max # of 1-2 neighbors
    12 = max # of 1-3 neighbors
    24 = max # of 1-4 neighbors
    26 = max # of special neighbors
  special bonds CPU = 0.005 seconds
  read_data CPU = 0.398 seconds
Finding SHAKE clusters ...
    1617 = # of size 2 clusters
    3633 = # of size 3 clusters
     747 = # of size 4 clusters
    4233 = # of frozen angles
  find clusters CPU = 0.003 seconds

CITE-CITE-CITE-CITE-CITE-CITE-CITE-CITE-CITE-CITE-CITE-CITE-CITE

Your simulation uses code contributions which should be cited:
- GPU package (short-range, long-range and three-body potentials):
The log file lists these citations in BibTeX format.

CITE-CITE-CITE-CITE-CITE-CITE-CITE-CITE-CITE-CITE-CITE-CITE-CITE

PPPM initialization ...
  using 12-bit tables for long-range coulomb (../kspace.cpp:340)
  G vector (1/distance) = 0.24883488
  grid = 25 32 32
  stencil order = 5
  estimated absolute RMS force accuracy = 0.035547797
  estimated relative force accuracy = 0.00010705113
  using single precision MKL FFT
  3d grid and FFT values/proc = 6426 2400

--------------------------------------------------------------------------
- Using acceleration for pppm:
-  with 6 proc(s) per device.
-  Horizontal vector operations: ENABLED
-  Shared memory system: No
--------------------------------------------------------------------------
Device 0: Tesla V100-SXM2-16GB, 80 CUs, 14/16 GB, 1.5 GHZ (Double Precision)
Device 1: Tesla V100-SXM2-16GB, 80 CUs, 1.5 GHZ (Double Precision)
--------------------------------------------------------------------------

Initializing Device and compiling on process 0...Done.
Initializing Devices 0-1 on core 0...Done.
Initializing Devices 0-1 on core 1...Done.
Initializing Devices 0-1 on core 2...Done.
Initializing Devices 0-1 on core 3...Done.
Initializing Devices 0-1 on core 4...Done.
Initializing Devices 0-1 on core 5...Done.


--------------------------------------------------------------------------
- Using acceleration for lj/charmm/coul/long:
-  with 6 proc(s) per device.
-  Horizontal vector operations: ENABLED
-  Shared memory system: No
--------------------------------------------------------------------------
Device 0: Tesla V100-SXM2-16GB, 80 CUs, 14/16 GB, 1.5 GHZ (Double Precision)
Device 1: Tesla V100-SXM2-16GB, 80 CUs, 1.5 GHZ (Double Precision)
--------------------------------------------------------------------------

Initializing Device and compiling on process 0...Done.
Initializing Devices 0-1 on core 0...Done.
Initializing Devices 0-1 on core 1...Done.
Initializing Devices 0-1 on core 2...Done.
Initializing Devices 0-1 on core 3...Done.
Initializing Devices 0-1 on core 4...Done.
Initializing Devices 0-1 on core 5...Done.

  generated 2278 of 2278 mixed pair_coeff terms from arithmetic mixing rule
Setting up Verlet run ...
  Unit style    : real
  Current step  : 0
  Time step     : 2
Per MPI rank memory allocation (min/avg/max) = 19.13 | 19.22 | 19.36 Mbytes
---------------- Step        0 ----- CPU =      0.0000 (sec) ----------------
TotEng   =    -25356.2131 KinEng   =     21444.8313 Temp     =       299.0397 
PotEng   =    -46801.0444 E_bond   =      2537.9940 E_angle  =     10921.3742 
E_dihed  =      5211.7865 E_impro  =       213.5116 E_vdwl   =     -2307.8634 
E_coul   =    207025.8948 E_long   =   -270403.7421 Press    =      -149.3265 
Volume   =    307995.0335 
---------------- Step       50 ----- CPU =      0.3477 (sec) ----------------
TotEng   =    -25330.0359 KinEng   =     21500.9987 Temp     =       299.8229 
PotEng   =    -46831.0346 E_bond   =      2471.7036 E_angle  =     10836.5106 
E_dihed  =      5239.6321 E_impro  =       227.1218 E_vdwl   =     -1993.2895 
E_coul   =    206797.6880 E_long   =   -270410.4012 Press    =       237.6594 
Volume   =    308031.6774 
---------------- Step      100 ----- CPU =      0.6861 (sec) ----------------
TotEng   =    -25290.7430 KinEng   =     21591.9064 Temp     =       301.0906 
PotEng   =    -46882.6494 E_bond   =      2567.9808 E_angle  =     10781.9583 
E_dihed  =      5198.7494 E_impro  =       216.7864 E_vdwl   =     -1902.6655 
E_coul   =    206659.5234 E_long   =   -270404.9821 Press    =         6.7345 
Volume   =    308134.2315 
---------------- Step      150 ----- CPU =      1.0165 (sec) ----------------
TotEng   =    -25258.0329 KinEng   =     21529.6481 Temp     =       300.2224 
PotEng   =    -46787.6810 E_bond   =      2556.3467 E_angle  =     10852.7817 
E_dihed  =      5265.2314 E_impro  =       203.0691 E_vdwl   =     -2066.1416 
E_coul   =    206797.5142 E_long   =   -270396.4826 Press    =       251.5194 
Volume   =    308515.2452 
---------------- Step      200 ----- CPU =      1.3550 (sec) ----------------
TotEng   =    -25078.8577 KinEng   =     21571.4101 Temp     =       300.8048 
PotEng   =    -46650.2679 E_bond   =      2488.6951 E_angle  =     11073.4391 
E_dihed  =      5221.7539 E_impro  =       232.8555 E_vdwl   =     -2167.6950 
E_coul   =    206902.8087 E_long   =   -270402.1253 Press    =        20.6727 
Volume   =    308997.5616 
---------------- Step      250 ----- CPU =      1.6927 (sec) ----------------
TotEng   =    -24944.3307 KinEng   =     21546.9530 Temp     =       300.4637 
PotEng   =    -46491.2837 E_bond   =      2542.5497 E_angle  =     11105.4895 
E_dihed  =      5239.6562 E_impro  =       212.3474 E_vdwl   =     -2169.1301 
E_coul   =    206990.0057 E_long   =   -270412.2021 Press    =      -170.0046 
Volume   =    309388.0689 
---------------- Step      300 ----- CPU =      2.0175 (sec) ----------------
TotEng   =    -24999.8218 KinEng   =     21502.1129 Temp     =       299.8384 
PotEng   =    -46501.9346 E_bond   =      2557.9347 E_angle  =     10921.7654 
E_dihed  =      5211.0664 E_impro  =       222.1785 E_vdwl   =     -2220.6664 
E_coul   =    207192.6508 E_long   =   -270386.8640 Press    =      -371.4101 
Volume   =    309663.6602 
---------------- Step      350 ----- CPU =      2.3592 (sec) ----------------
TotEng   =    -25128.6371 KinEng   =     21462.7112 Temp     =       299.2890 
PotEng   =    -46591.3483 E_bond   =      2580.5276 E_angle  =     10951.8854 
E_dihed  =      5250.5603 E_impro  =       212.6972 E_vdwl   =     -2168.0034 
E_coul   =    206983.0102 E_long   =   -270402.0256 Press    =      -335.6823 
Volume   =    309801.3831 
---------------- Step      400 ----- CPU =      2.6893 (sec) ----------------
TotEng   =    -25202.5623 KinEng   =     21401.2617 Temp     =       298.4321 
PotEng   =    -46603.8239 E_bond   =      2526.7125 E_angle  =     10968.0980 
E_dihed  =      5206.3779 E_impro  =       212.4473 E_vdwl   =     -2141.9174 
E_coul   =    207036.3290 E_long   =   -270411.8712 Press    =       235.1446 
Volume   =    309816.3497 
---------------- Step      450 ----- CPU =      3.0292 (sec) ----------------
TotEng   =    -25134.7824 KinEng   =     21491.6415 Temp     =       299.6924 
PotEng   =    -46626.4239 E_bond   =      2501.8890 E_angle  =     10967.3833 
E_dihed  =      5244.8650 E_impro  =       225.9801 E_vdwl   =     -2257.2642 
E_coul   =    207086.0551 E_long   =   -270395.3322 Press    =       164.5009 
Volume   =    309784.6537 
---------------- Step      500 ----- CPU =      3.3598 (sec) ----------------
TotEng   =    -24940.3835 KinEng   =     21668.3329 Temp     =       302.1563 
PotEng   =    -46608.7164 E_bond   =      2572.9307 E_angle  =     10956.1554 
E_dihed  =      5266.1859 E_impro  =       215.1228 E_vdwl   =     -2201.7825 
E_coul   =    206983.0491 E_long   =   -270400.3779 Press    =      -294.7352 
Volume   =    309773.7241 
---------------- Step      550 ----- CPU =      3.6969 (sec) ----------------
TotEng   =    -24918.1910 KinEng   =     21590.6785 Temp     =       301.0735 
PotEng   =    -46508.8695 E_bond   =      2510.5516 E_angle  =     10900.3998 
E_dihed  =      5208.0934 E_impro  =       224.5827 E_vdwl   =     -1943.5346 
E_coul   =    206984.2658 E_long   =   -270393.2282 Press    =       501.7988 
Volume   =    309715.5957 
---------------- Step      600 ----- CPU =      4.0262 (sec) ----------------
TotEng   =    -25034.5971 KinEng   =     21692.6531 Temp     =       302.4955 
PotEng   =    -46727.2502 E_bond   =      2570.7247 E_angle  =     10846.0909 
E_dihed  =      5228.0036 E_impro  =       210.0725 E_vdwl   =     -2171.2290 
E_coul   =    206986.6049 E_long   =   -270397.5177 Press    =        53.7425 
Volume   =    309833.5453 
Loop time of 4.02634 on 12 procs for 600 steps with 32000 atoms

Performance: 25.750 ns/day, 0.932 hours/ns, 149.019 timesteps/s
96.3% CPU use with 12 MPI tasks x 1 OpenMP threads

MPI task timing breakdown:
Section |  min time  |  avg time  |  max time  |%varavg| %total
---------------------------------------------------------------
Pair    | 1.0373     | 1.0827     | 1.1537     |   2.7 | 26.89
Bond    | 0.4648     | 0.59609    | 0.694      |   7.5 | 14.80
Kspace  | 1.1386     | 1.2305     | 1.3668     |   5.3 | 30.56
Neigh   | 0.046728   | 0.047375   | 0.047775   |   0.1 |  1.18
Comm    | 0.22549    | 0.23869    | 0.26616    |   3.5 |  5.93
Output  | 0.00086019 | 0.00088827 | 0.0011514  |   0.0 |  0.02
Modify  | 0.73082    | 0.79077    | 0.85967    |   4.9 | 19.64
Other   |            | 0.03931    |            |       |  0.98

Nlocal:        2666.67 ave        2745 max        2618 min
Histogram: 2 1 4 1 0 1 0 1 1 1
Nghost:        13237.1 ave       13344 max       13131 min
Histogram: 2 2 0 0 1 2 1 2 1 1
Neighs:              0 ave           0 max           0 min
Histogram: 12 0 0 0 0 0 0 0 0 0

Total # of neighbors = 0
Ave neighs/atom = 0
Ave special neighs/atom = 7.431875
Neighbor list builds = 66
Dangerous builds = 0


---------------------------------------------------------------------
      Device Time Info (average): 
---------------------------------------------------------------------
Data Transfer:   0.0253 s.
Neighbor copy:   0.0609 s.
Neighbor build:  0.2361 s.
Force calc:      0.9321 s.
Device Overhead: 0.3879 s.
Average split:   1.0000.
Lanes / atom:    8.
Vector width:    32.
Max Mem / Proc:  13.60 MB.
CPU Neighbor:    0.0256 s.
CPU Cast/Pack:   0.1052 s.
CPU Driver_Time: 0.0174 s.
CPU Idle_Time:   0.1642 s.
---------------------------------------------------------------------



---------------------------------------------------------------------
    Device Time Info (average) for kspace: 
---------------------------------------------------------------------
Data Out:        0.0159 s.
Data In:         0.0230 s.
Kernel (map):    0.4703 s.
Kernel (rho):    0.0717 s.
Force interp:    0.5637 s.
Total rho:       0.5579 s.
Total interp:    0.5867 s.
Force copy:      0.0125 s.
Total:           1.1572 s.
CPU Poisson:     0.6985 s.
CPU Data Cast:   0.0070 s.
CPU Idle Time:   0.5007 s.
Max Mem / Proc:  0.88 MB.
---------------------------------------------------------------------

Total wall time: 0:00:18
Intel(R) VTune(TM) Profiler 2022.2.0 collection completed successfully. Use the "aps --report /home/ubuntu/lammps/bench/aps_result_20220610" command to generate textual and HTML reports for the profiling session.
