LAMMPS (7 Jan 2022)
  using 1 OpenMP thread(s) per MPI task
Reading data file ...
  orthogonal box = (-27.5 -38.5 -36.3646) to (27.5 38.5 36.3615)
  3 by 4 by 3 MPI processor grid
  reading atoms ...
  32000 atoms
  reading velocities ...
  32000 velocities
  scanning bonds ...
  4 = max bonds/atom
  scanning angles ...
  8 = max angles/atom
  scanning dihedrals ...
  18 = max dihedrals/atom
  scanning impropers ...
  2 = max impropers/atom
  reading bonds ...
  27723 bonds
  reading angles ...
  40467 angles
  reading dihedrals ...
  56829 dihedrals
  reading impropers ...
  1034 impropers
Finding 1-2 1-3 1-4 neighbors ...
  special bond factors lj:    0        0        0       
  special bond factors coul:  0        0        0       
     4 = max # of 1-2 neighbors
    12 = max # of 1-3 neighbors
    24 = max # of 1-4 neighbors
    26 = max # of special neighbors
  special bonds CPU = 0.006 seconds
  read_data CPU = 0.406 seconds
Replicating atoms ...
  orthogonal box = (-27.5 -38.5 -36.3646) to (137.5 192.5 181.8137)
  3 by 4 by 3 MPI processor grid
  864000 atoms
  748521 bonds
  1092609 angles
  1534383 dihedrals
  27918 impropers
Finding 1-2 1-3 1-4 neighbors ...
  special bond factors lj:    0        0        0       
  special bond factors coul:  0        0        0       
     4 = max # of 1-2 neighbors
    12 = max # of 1-3 neighbors
    24 = max # of 1-4 neighbors
    26 = max # of special neighbors
  special bonds CPU = 0.052 seconds
  replicate CPU = 0.115 seconds
Finding SHAKE clusters ...
   43659 = # of size 2 clusters
   98091 = # of size 3 clusters
   20169 = # of size 4 clusters
  114291 = # of frozen angles
  find clusters CPU = 0.027 seconds

CITE-CITE-CITE-CITE-CITE-CITE-CITE-CITE-CITE-CITE-CITE-CITE-CITE

Your simulation uses code contributions which should be cited:
- GPU package (short-range, long-range and three-body potentials):
The log file lists these citations in BibTeX format.

CITE-CITE-CITE-CITE-CITE-CITE-CITE-CITE-CITE-CITE-CITE-CITE-CITE

PPPM initialization ...
  using 12-bit tables for long-range coulomb (../kspace.cpp:340)
  G vector (1/distance) = 0.24587501
  grid = 72 96 90
  stencil order = 5
  estimated absolute RMS force accuracy = 0.041154918
  estimated relative force accuracy = 0.00012393681
  using single precision MKL FFT
  3d grid and FFT values/proc = 29435 20736

--------------------------------------------------------------------------
- Using acceleration for pppm:
-  with 18 proc(s) per device.
-  Horizontal vector operations: ENABLED
-  Shared memory system: No
--------------------------------------------------------------------------
Device 0: Tesla V100-SXM2-16GB, 80 CUs, 10/16 GB, 1.5 GHZ (Single Precision)
Device 1: Tesla V100-SXM2-16GB, 80 CUs, 1.5 GHZ (Single Precision)
--------------------------------------------------------------------------

Initializing Device and compiling on process 0...Done.
Initializing Devices 0-1 on core 0...Done.
Initializing Devices 0-1 on core 1...Done.
Initializing Devices 0-1 on core 2...Done.
Initializing Devices 0-1 on core 3...Done.
Initializing Devices 0-1 on core 4...Done.
Initializing Devices 0-1 on core 5...Done.
Initializing Devices 0-1 on core 6...Done.
Initializing Devices 0-1 on core 7...Done.
Initializing Devices 0-1 on core 8...Done.
Initializing Devices 0-1 on core 9...Done.
Initializing Devices 0-1 on core 10...Done.
Initializing Devices 0-1 on core 11...Done.
Initializing Devices 0-1 on core 12...Done.
Initializing Devices 0-1 on core 13...Done.
Initializing Devices 0-1 on core 14...Done.
Initializing Devices 0-1 on core 15...Done.
Initializing Devices 0-1 on core 16...Done.
Initializing Devices 0-1 on core 17...Done.


--------------------------------------------------------------------------
- Using acceleration for lj/charmm/coul/long:
-  with 18 proc(s) per device.
-  Horizontal vector operations: ENABLED
-  Shared memory system: No
--------------------------------------------------------------------------
Device 0: Tesla V100-SXM2-16GB, 80 CUs, 10/16 GB, 1.5 GHZ (Single Precision)
Device 1: Tesla V100-SXM2-16GB, 80 CUs, 1.5 GHZ (Single Precision)
--------------------------------------------------------------------------

Initializing Device and compiling on process 0...Done.
Initializing Devices 0-1 on core 0...Done.
Initializing Devices 0-1 on core 1...Done.
Initializing Devices 0-1 on core 2...Done.
Initializing Devices 0-1 on core 3...Done.
Initializing Devices 0-1 on core 4...Done.
Initializing Devices 0-1 on core 5...Done.
Initializing Devices 0-1 on core 6...Done.
Initializing Devices 0-1 on core 7...Done.
Initializing Devices 0-1 on core 8...Done.
Initializing Devices 0-1 on core 9...Done.
Initializing Devices 0-1 on core 10...Done.
Initializing Devices 0-1 on core 11...Done.
Initializing Devices 0-1 on core 12...Done.
Initializing Devices 0-1 on core 13...Done.
Initializing Devices 0-1 on core 14...Done.
Initializing Devices 0-1 on core 15...Done.
Initializing Devices 0-1 on core 16...Done.
Initializing Devices 0-1 on core 17...Done.

  generated 2278 of 2278 mixed pair_coeff terms from arithmetic mixing rule
Setting up Verlet run ...
  Unit style    : real
  Current step  : 0
  Time step     : 2
Per MPI rank memory allocation (min/avg/max) = 75.63 | 76.01 | 76.38 Mbytes
---------------- Step        0 ----- CPU =      0.0000 (sec) ----------------
TotEng   =   -684607.4760 KinEng   =    579010.4447 Temp     =       299.0277 
PotEng   =  -1263617.9206 E_bond   =     68525.8383 E_angle  =    294877.1036 
E_dihed  =    140718.2355 E_impro  =      5764.8128 E_vdwl   =    -62312.3552 
E_coul   =   5503140.8735 E_long   =  -7214332.4292 Press    =      -148.7819 
Volume   =   8315865.9045 
---------------- Step       50 ----- CPU =      1.9083 (sec) ----------------
TotEng   =   -683885.3699 KinEng   =    580537.3365 Temp     =       299.8163 
PotEng   =  -1264422.7063 E_bond   =     66738.5320 E_angle  =    292590.9540 
E_dihed  =    141472.6697 E_impro  =      6132.6082 E_vdwl   =    -53808.7545 
E_coul   =   5496968.3934 E_long   =  -7214517.1091 Press    =       238.5956 
Volume   =   8316859.4016 
---------------- Step      100 ----- CPU =      3.9362 (sec) ----------------
TotEng   =   -682807.4426 KinEng   =    582947.7853 Temp     =       301.0611 
PotEng   =  -1265755.2279 E_bond   =     69340.3957 E_angle  =    291119.6135 
E_dihed  =    140358.5969 E_impro  =      5850.7783 E_vdwl   =    -51258.7643 
E_coul   =   5493199.5706 E_long   =  -7214365.4186 Press    =        10.9326 
Volume   =   8319641.0086 
Loop time of 3.93632 on 36 procs for 100 steps with 864000 atoms

Performance: 4.390 ns/day, 5.467 hours/ns, 25.404 timesteps/s
97.6% CPU use with 36 MPI tasks x 1 OpenMP threads

MPI task timing breakdown:
Section |  min time  |  avg time  |  max time  |%varavg| %total
---------------------------------------------------------------
Pair    | 0.56103    | 0.60131    | 0.64781    |   2.3 | 15.28
Bond    | 0.78572    | 0.82113    | 0.86237    |   2.0 | 20.86
Kspace  | 0.80261    | 0.8426     | 0.88181    |   2.0 | 21.41
Neigh   | 0.16978    | 0.17228    | 0.17515    |   0.3 |  4.38
Comm    | 0.25794    | 0.28377    | 0.30873    |   3.8 |  7.21
Output  | 0.0011158  | 0.0011235  | 0.0011792  |   0.0 |  0.03
Modify  | 1.0583     | 1.1273     | 1.202      |   4.5 | 28.64
Other   |            | 0.08679    |            |       |  2.20

Nlocal:          24000 ave       24061 max       23926 min
Histogram: 9 0 0 9 0 0 0 0 9 9
Nghost:        40696.5 ave       40811 max       40557 min
Histogram: 9 0 0 0 9 0 0 9 0 9
Neighs:              0 ave           0 max           0 min
Histogram: 36 0 0 0 0 0 0 0 0 0

Total # of neighbors = 0
Ave neighs/atom = 0
Ave special neighs/atom = 7.431875
Neighbor list builds = 11
Dangerous builds = 0


---------------------------------------------------------------------
      Device Time Info (average): 
---------------------------------------------------------------------
Data Transfer:   0.0090 s.
Neighbor copy:   0.1224 s.
Neighbor build:  0.2299 s.
Force calc:      0.6819 s.
Device Overhead: 0.1862 s.
Average split:   1.0000.
Lanes / atom:    8.
Vector width:    32.
Max Mem / Proc:  114.93 MB.
CPU Neighbor:    0.0617 s.
CPU Cast/Pack:   0.0965 s.
CPU Driver_Time: 0.0034 s.
CPU Idle_Time:   0.0359 s.
---------------------------------------------------------------------



---------------------------------------------------------------------
    Device Time Info (average) for kspace: 
---------------------------------------------------------------------
Data Out:        0.0075 s.
Data In:         0.0479 s.
Kernel (map):    0.3905 s.
Kernel (rho):    0.0160 s.
Force interp:    0.2974 s.
Total rho:       0.4141 s.
Total interp:    0.3453 s.
Force copy:      0.0060 s.
Total:           0.7654 s.
CPU Poisson:     0.4857 s.
CPU Data Cast:   0.0083 s.
CPU Idle Time:   0.3617 s.
Max Mem / Proc:  4.80 MB.
---------------------------------------------------------------------

Total wall time: 0:00:51
Intel(R) VTune(TM) Profiler 2022.2.0 collection completed successfully. Use the "aps --report /home/ubuntu/lammps/bench/aps_result_20220609" command to generate textual and HTML reports for the profiling session.
