LAMMPS (7 Jan 2022)
  using 1 OpenMP thread(s) per MPI task
New timer settings: style=full  mode=sync  timeout=off
Reading data file ...
  orthogonal box = (-27.5 -38.5 -36.3646) to (27.5 38.5 36.3615)
  2 by 4 by 3 MPI processor grid
  reading atoms ...
  32000 atoms
  reading velocities ...
  32000 velocities
  scanning bonds ...
  4 = max bonds/atom
  scanning angles ...
  8 = max angles/atom
  scanning dihedrals ...
  18 = max dihedrals/atom
  scanning impropers ...
  2 = max impropers/atom
  reading bonds ...
  27723 bonds
  reading angles ...
  40467 angles
  reading dihedrals ...
  56829 dihedrals
  reading impropers ...
  1034 impropers
Finding 1-2 1-3 1-4 neighbors ...
  special bond factors lj:    0        0        0       
  special bond factors coul:  0        0        0       
     4 = max # of 1-2 neighbors
    12 = max # of 1-3 neighbors
    24 = max # of 1-4 neighbors
    26 = max # of special neighbors
  special bonds CPU = 0.006 seconds
  read_data CPU = 0.317 seconds
Finding SHAKE clusters ...
    1617 = # of size 2 clusters
    3633 = # of size 3 clusters
     747 = # of size 4 clusters
    4233 = # of frozen angles
  find clusters CPU = 0.003 seconds

CITE-CITE-CITE-CITE-CITE-CITE-CITE-CITE-CITE-CITE-CITE-CITE-CITE

Your simulation uses code contributions which should be cited:
- GPU package (short-range, long-range and three-body potentials):
The log file lists these citations in BibTeX format.

CITE-CITE-CITE-CITE-CITE-CITE-CITE-CITE-CITE-CITE-CITE-CITE-CITE

PPPM initialization ...
  using 12-bit tables for long-range coulomb (../kspace.cpp:340)
  G vector (1/distance) = 0.24883488
  grid = 25 32 32
  stencil order = 5
  estimated absolute RMS force accuracy = 0.035547797
  estimated relative force accuracy = 0.00010705113
  using single precision MKL FFT
  3d grid and FFT values/proc = 3978 1600

--------------------------------------------------------------------------
- Using acceleration for pppm:
-  with 3 proc(s) per device.
-  Horizontal vector operations: ENABLED
-  Shared memory system: No
--------------------------------------------------------------------------
Device 0: Tesla V100-SXM2-16GB, 80 CUs, 15/16 GB, 1.5 GHZ (Mixed Precision)
Device 1: Tesla V100-SXM2-16GB, 80 CUs, 1.5 GHZ (Mixed Precision)
Device 2: Tesla V100-SXM2-16GB, 80 CUs, 1.5 GHZ (Mixed Precision)
Device 3: Tesla V100-SXM2-16GB, 80 CUs, 1.5 GHZ (Mixed Precision)
Device 4: Tesla V100-SXM2-16GB, 80 CUs, 1.5 GHZ (Mixed Precision)
Device 5: Tesla V100-SXM2-16GB, 80 CUs, 1.5 GHZ (Mixed Precision)
Device 6: Tesla V100-SXM2-16GB, 80 CUs, 1.5 GHZ (Mixed Precision)
Device 7: Tesla V100-SXM2-16GB, 80 CUs, 1.5 GHZ (Mixed Precision)
--------------------------------------------------------------------------

Initializing Device and compiling on process 0...Done.
Initializing Devices 0-7 on core 0...Done.
Initializing Devices 0-7 on core 1...Done.
Initializing Devices 0-7 on core 2...Done.


--------------------------------------------------------------------------
- Using acceleration for lj/charmm/coul/long:
-  with 3 proc(s) per device.
-  Horizontal vector operations: ENABLED
-  Shared memory system: No
--------------------------------------------------------------------------
Device 0: Tesla V100-SXM2-16GB, 80 CUs, 15/16 GB, 1.5 GHZ (Mixed Precision)
Device 1: Tesla V100-SXM2-16GB, 80 CUs, 1.5 GHZ (Mixed Precision)
Device 2: Tesla V100-SXM2-16GB, 80 CUs, 1.5 GHZ (Mixed Precision)
Device 3: Tesla V100-SXM2-16GB, 80 CUs, 1.5 GHZ (Mixed Precision)
Device 4: Tesla V100-SXM2-16GB, 80 CUs, 1.5 GHZ (Mixed Precision)
Device 5: Tesla V100-SXM2-16GB, 80 CUs, 1.5 GHZ (Mixed Precision)
Device 6: Tesla V100-SXM2-16GB, 80 CUs, 1.5 GHZ (Mixed Precision)
Device 7: Tesla V100-SXM2-16GB, 80 CUs, 1.5 GHZ (Mixed Precision)
--------------------------------------------------------------------------

Initializing Device and compiling on process 0...Done.
Initializing Devices 0-7 on core 0...Done.
Initializing Devices 0-7 on core 1...Done.
Initializing Devices 0-7 on core 2...Done.

  generated 2278 of 2278 mixed pair_coeff terms from arithmetic mixing rule
Setting up Verlet run ...
  Unit style    : real
  Current step  : 0
  Time step     : 2
Per MPI rank memory allocation (min/avg/max) = 18.02 | 18.18 | 18.43 Mbytes
---------------- Step        0 ----- CPU =      0.0000 (sec) ----------------
TotEng   =    -25356.2687 KinEng   =     21444.8313 Temp     =       299.0397 
PotEng   =    -46801.0999 E_bond   =      2537.9940 E_angle  =     10921.3742 
E_dihed  =      5211.7865 E_impro  =       213.5116 E_vdwl   =     -2307.8635 
E_coul   =    207025.8394 E_long   =   -270403.7421 Press    =      -149.3321 
Volume   =    307995.0335 
---------------- Step       50 ----- CPU =      0.1795 (sec) ----------------
TotEng   =    -25330.0808 KinEng   =     21500.9990 Temp     =       299.8229 
PotEng   =    -46831.0798 E_bond   =      2471.7037 E_angle  =     10836.5108 
E_dihed  =      5239.6320 E_impro  =       227.1218 E_vdwl   =     -1993.2896 
E_coul   =    206797.6428 E_long   =   -270410.4013 Press    =       237.6576 
Volume   =    308031.6777 
---------------- Step      100 ----- CPU =      0.3531 (sec) ----------------
TotEng   =    -25290.7891 KinEng   =     21591.9085 Temp     =       301.0906 
PotEng   =    -46882.6977 E_bond   =      2567.9806 E_angle  =     10781.9580 
E_dihed  =      5198.7495 E_impro  =       216.7865 E_vdwl   =     -1902.6659 
E_coul   =    206659.4757 E_long   =   -270404.9821 Press    =         6.7306 
Volume   =    308134.2327 
---------------- Step      150 ----- CPU =      0.5181 (sec) ----------------
TotEng   =    -25258.1238 KinEng   =     21529.6746 Temp     =       300.2228 
PotEng   =    -46787.7984 E_bond   =      2556.3447 E_angle  =     10852.7808 
E_dihed  =      5265.2325 E_impro  =       203.0689 E_vdwl   =     -2066.1706 
E_coul   =    206797.4306 E_long   =   -270396.4852 Press    =       251.4452 
Volume   =    308515.2435 
---------------- Step      200 ----- CPU =      0.6887 (sec) ----------------
TotEng   =    -25078.9379 KinEng   =     21571.2269 Temp     =       300.8022 
PotEng   =    -46650.1648 E_bond   =      2488.6935 E_angle  =     11073.4407 
E_dihed  =      5221.7528 E_impro  =       232.8574 E_vdwl   =     -2167.6612 
E_coul   =    206902.8763 E_long   =   -270402.1243 Press    =        20.7315 
Volume   =    308997.5437 
---------------- Step      250 ----- CPU =      0.8582 (sec) ----------------
TotEng   =    -24944.4326 KinEng   =     21547.2361 Temp     =       300.4677 
PotEng   =    -46491.6687 E_bond   =      2542.5606 E_angle  =     11105.5024 
E_dihed  =      5239.6380 E_impro  =       212.3482 E_vdwl   =     -2168.7124 
E_coul   =    206989.1624 E_long   =   -270412.1679 Press    =      -169.7815 
Volume   =    309388.0897 
---------------- Step      300 ----- CPU =      1.0258 (sec) ----------------
TotEng   =    -25000.2963 KinEng   =     21499.7424 Temp     =       299.8054 
PotEng   =    -46500.0387 E_bond   =      2557.8875 E_angle  =     10921.9621 
E_dihed  =      5211.0926 E_impro  =       222.2089 E_vdwl   =     -2217.6118 
E_coul   =    207191.2998 E_long   =   -270386.8777 Press    =      -369.1672 
Volume   =    309663.7294 
---------------- Step      350 ----- CPU =      1.2038 (sec) ----------------
TotEng   =    -25130.5572 KinEng   =     21473.7989 Temp     =       299.4436 
PotEng   =    -46604.3561 E_bond   =      2580.5765 E_angle  =     10951.3023 
E_dihed  =      5250.7871 E_impro  =       212.5873 E_vdwl   =     -2166.7309 
E_coul   =    206967.6254 E_long   =   -270400.5039 Press    =      -336.4113 
Volume   =    309800.9874 
---------------- Step      400 ----- CPU =      1.3789 (sec) ----------------
TotEng   =    -25207.4856 KinEng   =     21443.8030 Temp     =       299.0253 
PotEng   =    -46651.2886 E_bond   =      2526.4181 E_angle  =     10966.2655 
E_dihed  =      5205.5171 E_impro  =       213.1691 E_vdwl   =     -2199.8311 
E_coul   =    207051.8283 E_long   =   -270414.6555 Press    =       177.4266 
Volume   =    309816.8727 
---------------- Step      450 ----- CPU =      1.5525 (sec) ----------------
TotEng   =    -25173.4319 KinEng   =     21536.4468 Temp     =       300.3172 
PotEng   =    -46709.8787 E_bond   =      2501.0384 E_angle  =     10961.7375 
E_dihed  =      5243.4730 E_impro  =       225.0530 E_vdwl   =     -2253.0078 
E_coul   =    207002.7151 E_long   =   -270390.8879 Press    =       150.3535 
Volume   =    309774.9540 
---------------- Step      500 ----- CPU =      1.7172 (sec) ----------------
TotEng   =    -25035.2069 KinEng   =     21515.1736 Temp     =       300.0206 
PotEng   =    -46550.3805 E_bond   =      2571.4435 E_angle  =     10943.3250 
E_dihed  =      5255.8858 E_impro  =       216.4533 E_vdwl   =     -2195.6916 
E_coul   =    207045.5051 E_long   =   -270387.3015 Press    =      -302.2541 
Volume   =    309772.5595 
---------------- Step      550 ----- CPU =      1.8873 (sec) ----------------
TotEng   =    -24980.7030 KinEng   =     21634.3465 Temp     =       301.6824 
PotEng   =    -46615.0495 E_bond   =      2521.7507 E_angle  =     10926.0445 
E_dihed  =      5205.7068 E_impro  =       225.4565 E_vdwl   =     -2092.9057 
E_coul   =    206993.3835 E_long   =   -270394.4857 Press    =       311.8541 
Volume   =    309725.4850 
---------------- Step      600 ----- CPU =      2.0530 (sec) ----------------
TotEng   =    -25046.7125 KinEng   =     21798.6021 Temp     =       303.9729 
PotEng   =    -46845.3146 E_bond   =      2569.4108 E_angle  =     10863.4857 
E_dihed  =      5248.1340 E_impro  =       210.6903 E_vdwl   =     -2097.1684 
E_coul   =    206767.0003 E_long   =   -270406.8673 Press    =       200.5931 
Volume   =    309818.2513 
Loop time of 2.05305 on 24 procs for 600 steps with 32000 atoms

Performance: 50.501 ns/day, 0.475 hours/ns, 292.248 timesteps/s
96.6% CPU use with 24 MPI tasks x 1 OpenMP threads

MPI task timing breakdown:
Section |  min time  |  avg time  |  max time  |%varavg|  %CPU | %total
-----------------------------------------------------------------------
Pair    | 0.22494    | 0.25499    | 0.30064    |   4.4 |  96.2 | 12.42
Bond    | 0.13815    | 0.29661    | 0.49512    |  22.7 |  97.3 | 14.45
Kspace  | 0.50904    | 0.50927    | 0.51066    |   0.1 |  96.4 | 24.81
Neigh   | 0.031832   | 0.031862   | 0.03189    |   0.0 |  92.4 |  1.55
Comm    | 0.18747    | 0.18936    | 0.19156    |   0.2 |  95.4 |  9.22
Output  | 0.00094319 | 0.00095974 | 0.0012713  |   0.0 | 100.0 |  0.05
Modify  | 0.30242    | 0.3378     | 0.39631    |   6.5 |  96.9 | 16.45
Sync    | 0.20606    | 0.41342    | 0.62494    |  18.5 |  97.3 | 20.14
Other   |            | 0.4322     |            |       |       | 21.05

Nlocal:        1333.33 ave        1377 max        1281 min
Histogram: 3 2 0 2 3 3 2 4 2 3
Nghost:        9810.29 ave        9956 max        9625 min
Histogram: 2 1 1 0 7 3 2 2 3 3
Neighs:              0 ave           0 max           0 min
Histogram: 24 0 0 0 0 0 0 0 0 0

Total # of neighbors = 0
Ave neighs/atom = 0
Ave special neighs/atom = 7.431875
Neighbor list builds = 66
Dangerous builds = 0


---------------------------------------------------------------------
      Device Time Info (average): 
---------------------------------------------------------------------
Data Transfer:   0.0155 s.
Neighbor copy:   0.0295 s.
Neighbor build:  0.1145 s.
Force calc:      0.3568 s.
Device Overhead: 0.1820 s.
Average split:   1.0000.
Lanes / atom:    8.
Vector width:    32.
Max Mem / Proc:  6.97 MB.
CPU Neighbor:    0.0239 s.
CPU Cast/Pack:   0.0453 s.
CPU Driver_Time: 0.0103 s.
CPU Idle_Time:   0.0022 s.
---------------------------------------------------------------------



---------------------------------------------------------------------
    Device Time Info (average) for kspace: 
---------------------------------------------------------------------
Data Out:        0.0080 s.
Data In:         0.0285 s.
Kernel (map):    0.2184 s.
Kernel (rho):    0.0665 s.
Force interp:    0.1099 s.
Total rho:       0.2928 s.
Total interp:    0.1383 s.
Force copy:      0.0085 s.
Total:           0.4396 s.
CPU Poisson:     0.3583 s.
CPU Data Cast:   0.0028 s.
CPU Idle Time:   0.1283 s.
Max Mem / Proc:  0.47 MB.
---------------------------------------------------------------------

Total wall time: 0:00:16
Intel(R) VTune(TM) Profiler 2022.1.0 collection completed successfully. Use the "aps --report /home/ubuntu/lammps/bench/aps_result_20220414" command to generate textual and HTML reports for the profiling session.
