LAMMPS (7 Jan 2022)
  using 1 OpenMP thread(s) per MPI task
Reading data file ...
  orthogonal box = (-27.5 -38.5 -36.3646) to (27.5 38.5 36.3615)
  1 by 3 by 2 MPI processor grid
  reading atoms ...
  32000 atoms
  reading velocities ...
  32000 velocities
  scanning bonds ...
  4 = max bonds/atom
  scanning angles ...
  8 = max angles/atom
  scanning dihedrals ...
  18 = max dihedrals/atom
  scanning impropers ...
  2 = max impropers/atom
  reading bonds ...
  27723 bonds
  reading angles ...
  40467 angles
  reading dihedrals ...
  56829 dihedrals
  reading impropers ...
  1034 impropers
Finding 1-2 1-3 1-4 neighbors ...
  special bond factors lj:    0        0        0       
  special bond factors coul:  0        0        0       
     4 = max # of 1-2 neighbors
    12 = max # of 1-3 neighbors
    24 = max # of 1-4 neighbors
    26 = max # of special neighbors
  special bonds CPU = 0.006 seconds
  read_data CPU = 0.388 seconds
Finding SHAKE clusters ...
    1617 = # of size 2 clusters
    3633 = # of size 3 clusters
     747 = # of size 4 clusters
    4233 = # of frozen angles
  find clusters CPU = 0.003 seconds

CITE-CITE-CITE-CITE-CITE-CITE-CITE-CITE-CITE-CITE-CITE-CITE-CITE

Your simulation uses code contributions which should be cited:
- GPU package (short-range, long-range and three-body potentials):
The log file lists these citations in BibTeX format.

CITE-CITE-CITE-CITE-CITE-CITE-CITE-CITE-CITE-CITE-CITE-CITE-CITE

PPPM initialization ...
  using 12-bit tables for long-range coulomb (../kspace.cpp:340)
  G vector (1/distance) = 0.24883488
  grid = 25 32 32
  stencil order = 5
  estimated absolute RMS force accuracy = 0.035547797
  estimated relative force accuracy = 0.00010705113
  using single precision MKL FFT
  3d grid and FFT values/proc = 10710 4800

--------------------------------------------------------------------------
- Using acceleration for pppm:
-  with 6 proc(s) per device.
-  Horizontal vector operations: ENABLED
-  Shared memory system: No
--------------------------------------------------------------------------
Device 0: Tesla V100-SXM2-16GB, 80 CUs, 14/16 GB, 1.5 GHZ (Mixed Precision)
--------------------------------------------------------------------------

Initializing Device and compiling on process 0...Done.
Initializing Device 0 on core 0...Done.
Initializing Device 0 on core 1...Done.
Initializing Device 0 on core 2...Done.
Initializing Device 0 on core 3...Done.
Initializing Device 0 on core 4...Done.
Initializing Device 0 on core 5...Done.


--------------------------------------------------------------------------
- Using acceleration for lj/charmm/coul/long:
-  with 6 proc(s) per device.
-  Horizontal vector operations: ENABLED
-  Shared memory system: No
--------------------------------------------------------------------------
Device 0: Tesla V100-SXM2-16GB, 80 CUs, 14/16 GB, 1.5 GHZ (Mixed Precision)
--------------------------------------------------------------------------

Initializing Device and compiling on process 0...Done.
Initializing Device 0 on core 0...Done.
Initializing Device 0 on core 1...Done.
Initializing Device 0 on core 2...Done.
Initializing Device 0 on core 3...Done.
Initializing Device 0 on core 4...Done.
Initializing Device 0 on core 5...Done.

  generated 2278 of 2278 mixed pair_coeff terms from arithmetic mixing rule
Setting up Verlet run ...
  Unit style    : real
  Current step  : 0
  Time step     : 2
Per MPI rank memory allocation (min/avg/max) = 36.02 | 36.13 | 36.28 Mbytes
---------------- Step        0 ----- CPU =      0.0000 (sec) ----------------
TotEng   =    -25356.2686 KinEng   =     21444.8313 Temp     =       299.0397 
PotEng   =    -46801.0999 E_bond   =      2537.9940 E_angle  =     10921.3742 
E_dihed  =      5211.7865 E_impro  =       213.5116 E_vdwl   =     -2307.8635 
E_coul   =    207025.8394 E_long   =   -270403.7421 Press    =      -149.3321 
Volume   =    307995.0335 
---------------- Step       50 ----- CPU =      0.3597 (sec) ----------------
TotEng   =    -25330.0747 KinEng   =     21500.9986 Temp     =       299.8229 
PotEng   =    -46831.0734 E_bond   =      2471.7037 E_angle  =     10836.5108 
E_dihed  =      5239.6320 E_impro  =       227.1219 E_vdwl   =     -1993.2894 
E_coul   =    206797.6489 E_long   =   -270410.4011 Press    =       237.6651 
Volume   =    308031.6776 
---------------- Step      100 ----- CPU =      0.7099 (sec) ----------------
TotEng   =    -25290.7909 KinEng   =     21591.9033 Temp     =       301.0905 
PotEng   =    -46882.6942 E_bond   =      2567.9806 E_angle  =     10781.9580 
E_dihed  =      5198.7496 E_impro  =       216.7865 E_vdwl   =     -1902.6640 
E_coul   =    206659.4770 E_long   =   -270404.9819 Press    =         6.7306 
Volume   =    308134.2329 
---------------- Step      150 ----- CPU =      1.0602 (sec) ----------------
TotEng   =    -25258.1141 KinEng   =     21529.7140 Temp     =       300.2233 
PotEng   =    -46787.8281 E_bond   =      2556.3449 E_angle  =     10852.7832 
E_dihed  =      5265.2326 E_impro  =       203.0690 E_vdwl   =     -2066.1755 
E_coul   =    206797.4002 E_long   =   -270396.4826 Press    =       251.4306 
Volume   =    308515.2423 
---------------- Step      200 ----- CPU =      1.4092 (sec) ----------------
TotEng   =    -25078.9069 KinEng   =     21571.1230 Temp     =       300.8008 
PotEng   =    -46650.0299 E_bond   =      2488.6965 E_angle  =     11073.4503 
E_dihed  =      5221.7535 E_impro  =       232.8570 E_vdwl   =     -2167.7573 
E_coul   =    206903.1042 E_long   =   -270402.1342 Press    =        20.6988 
Volume   =    308997.5480 
---------------- Step      250 ----- CPU =      1.7588 (sec) ----------------
TotEng   =    -24944.1693 KinEng   =     21548.0971 Temp     =       300.4797 
PotEng   =    -46492.2664 E_bond   =      2542.5542 E_angle  =     11105.5212 
E_dihed  =      5239.6430 E_impro  =       212.3480 E_vdwl   =     -2168.8467 
E_coul   =    206988.6929 E_long   =   -270412.1790 Press    =      -169.9515 
Volume   =    309388.0868 
---------------- Step      300 ----- CPU =      2.1092 (sec) ----------------
TotEng   =    -24999.9577 KinEng   =     21499.4026 Temp     =       299.8007 
PotEng   =    -46499.3604 E_bond   =      2557.8365 E_angle  =     10921.9158 
E_dihed  =      5211.0996 E_impro  =       222.1855 E_vdwl   =     -2217.4840 
E_coul   =    207191.8756 E_long   =   -270386.7893 Press    =      -368.7557 
Volume   =    309663.5584 
---------------- Step      350 ----- CPU =      2.4582 (sec) ----------------
TotEng   =    -25128.5785 KinEng   =     21478.0043 Temp     =       299.5023 
PotEng   =    -46606.5828 E_bond   =      2580.4726 E_angle  =     10951.7978 
E_dihed  =      5250.9484 E_impro  =       212.6696 E_vdwl   =     -2170.5115 
E_coul   =    206969.3241 E_long   =   -270401.2838 Press    =      -339.8350 
Volume   =    309800.4521 
---------------- Step      400 ----- CPU =      2.8158 (sec) ----------------
TotEng   =    -25208.8451 KinEng   =     21431.3203 Temp     =       298.8513 
PotEng   =    -46640.1654 E_bond   =      2527.0259 E_angle  =     10967.3128 
E_dihed  =      5205.6322 E_impro  =       212.7553 E_vdwl   =     -2174.6607 
E_coul   =    207035.7464 E_long   =   -270413.9772 Press    =       199.8854 
Volume   =    309816.5908 
---------------- Step      450 ----- CPU =      3.1734 (sec) ----------------
TotEng   =    -25173.3703 KinEng   =     21504.2596 Temp     =       299.8684 
PotEng   =    -46677.6298 E_bond   =      2497.7723 E_angle  =     10961.8542 
E_dihed  =      5244.8893 E_impro  =       225.4427 E_vdwl   =     -2242.0456 
E_coul   =    207027.1304 E_long   =   -270392.6731 Press    =       185.2416 
Volume   =    309776.9573 
---------------- Step      500 ----- CPU =      3.5220 (sec) ----------------
TotEng   =    -25014.0020 KinEng   =     21604.2403 Temp     =       301.2626 
PotEng   =    -46618.2423 E_bond   =      2572.1755 E_angle  =     10954.4437 
E_dihed  =      5262.2956 E_impro  =       216.8129 E_vdwl   =     -2282.1261 
E_coul   =    207057.3113 E_long   =   -270399.1551 Press    =      -358.6012 
Volume   =    309759.6153 
---------------- Step      550 ----- CPU =      3.8703 (sec) ----------------
TotEng   =    -24938.9354 KinEng   =     21629.2334 Temp     =       301.6111 
PotEng   =    -46568.1688 E_bond   =      2510.2742 E_angle  =     10939.5129 
E_dihed  =      5197.1880 E_impro  =       223.5803 E_vdwl   =     -2019.2891 
E_coul   =    206983.4873 E_long   =   -270402.9224 Press    =       425.8893 
Volume   =    309740.6143 
---------------- Step      600 ----- CPU =      4.2136 (sec) ----------------
TotEng   =    -25011.4298 KinEng   =     21728.0312 Temp     =       302.9888 
PotEng   =    -46739.4609 E_bond   =      2580.2494 E_angle  =     10853.0242 
E_dihed  =      5245.4396 E_impro  =       215.1094 E_vdwl   =     -2275.8629 
E_coul   =    207057.6448 E_long   =   -270415.0655 Press    =         4.4704 
Volume   =    309896.2655 
Loop time of 4.21363 on 6 procs for 600 steps with 32000 atoms

Performance: 24.606 ns/day, 0.975 hours/ns, 142.395 timesteps/s
97.7% CPU use with 6 MPI tasks x 1 OpenMP threads

MPI task timing breakdown:
Section |  min time  |  avg time  |  max time  |%varavg| %total
---------------------------------------------------------------
Pair    | 0.49166    | 0.54017    | 0.60014    |   5.8 | 12.82
Bond    | 1.0224     | 1.1082     | 1.1902     |   5.9 | 26.30
Kspace  | 0.84963    | 0.92764    | 1.0327     |   7.0 | 22.02
Neigh   | 0.09074    | 0.093904   | 0.096023   |   0.7 |  2.23
Comm    | 0.28007    | 0.31152    | 0.33404    |   3.4 |  7.39
Output  | 0.00083837 | 0.00089392 | 0.0011162  |   0.0 |  0.02
Modify  | 1.0916     | 1.1646     | 1.2654     |   6.4 | 27.64
Other   |            | 0.06674    |            |       |  1.58

Nlocal:        5333.33 ave        5395 max        5259 min
Histogram: 1 0 2 0 0 0 0 0 1 2
Nghost:        19045.7 ave       19090 max       18979 min
Histogram: 1 1 0 0 0 0 0 1 1 2
Neighs:              0 ave           0 max           0 min
Histogram: 6 0 0 0 0 0 0 0 0 0

Total # of neighbors = 0
Ave neighs/atom = 0
Ave special neighs/atom = 7.431875
Neighbor list builds = 66
Dangerous builds = 0


---------------------------------------------------------------------
      Device Time Info (average): 
---------------------------------------------------------------------
Data Transfer:   0.0261 s.
Neighbor copy:   0.0397 s.
Neighbor build:  0.2131 s.
Force calc:      0.8281 s.
Device Overhead: 0.4045 s.
Average split:   1.0000.
Lanes / atom:    8.
Vector width:    32.
Max Mem / Proc:  26.33 MB.
CPU Neighbor:    0.0337 s.
CPU Cast/Pack:   0.1059 s.
CPU Driver_Time: 0.0188 s.
CPU Idle_Time:   0.0094 s.
---------------------------------------------------------------------



---------------------------------------------------------------------
    Device Time Info (average) for kspace: 
---------------------------------------------------------------------
Data Out:        0.0151 s.
Data In:         0.0523 s.
Kernel (map):    0.4779 s.
Kernel (rho):    0.0770 s.
Force interp:    0.2729 s.
Total rho:       0.5700 s.
Total interp:    0.3252 s.
Force copy:      0.0166 s.
Total:           0.9118 s.
CPU Poisson:     0.5957 s.
CPU Data Cast:   0.0150 s.
CPU Idle Time:   0.2911 s.
Max Mem / Proc:  1.64 MB.
---------------------------------------------------------------------

Total wall time: 0:00:11
Intel(R) VTune(TM) Profiler 2022.2.0 collection completed successfully. Use the "aps --report /home/ubuntu/lammps/bench/aps_result_20220530" command to generate textual and HTML reports for the profiling session.
