LAMMPS (7 Jan 2022)
  using 1 OpenMP thread(s) per MPI task
Reading data file ...
  orthogonal box = (-27.5 -38.5 -36.3646) to (27.5 38.5 36.3615)
  3 by 4 by 4 MPI processor grid
  reading atoms ...
  32000 atoms
  reading velocities ...
  32000 velocities
  scanning bonds ...
  4 = max bonds/atom
  scanning angles ...
  8 = max angles/atom
  scanning dihedrals ...
  18 = max dihedrals/atom
  scanning impropers ...
  2 = max impropers/atom
  reading bonds ...
  27723 bonds
  reading angles ...
  40467 angles
  reading dihedrals ...
  56829 dihedrals
  reading impropers ...
  1034 impropers
Finding 1-2 1-3 1-4 neighbors ...
  special bond factors lj:    0        0        0       
  special bond factors coul:  0        0        0       
     4 = max # of 1-2 neighbors
    12 = max # of 1-3 neighbors
    24 = max # of 1-4 neighbors
    26 = max # of special neighbors
  special bonds CPU = 0.007 seconds
  read_data CPU = 0.412 seconds
Replicating atoms ...
  orthogonal box = (-27.5 -38.5 -36.3646) to (192.5 269.5 254.5398)
  3 by 4 by 4 MPI processor grid
  2048000 atoms
  1774272 bonds
  2589888 angles
  3637056 dihedrals
  66176 impropers
Finding 1-2 1-3 1-4 neighbors ...
  special bond factors lj:    0        0        0       
  special bond factors coul:  0        0        0       
     4 = max # of 1-2 neighbors
    12 = max # of 1-3 neighbors
    24 = max # of 1-4 neighbors
    26 = max # of special neighbors
  special bonds CPU = 0.093 seconds
  replicate CPU = 0.211 seconds
Finding SHAKE clusters ...
  103488 = # of size 2 clusters
  232512 = # of size 3 clusters
   47808 = # of size 4 clusters
  270912 = # of frozen angles
  find clusters CPU = 0.044 seconds

CITE-CITE-CITE-CITE-CITE-CITE-CITE-CITE-CITE-CITE-CITE-CITE-CITE

Your simulation uses code contributions which should be cited:
- GPU package (short-range, long-range and three-body potentials):
The log file lists these citations in BibTeX format.

CITE-CITE-CITE-CITE-CITE-CITE-CITE-CITE-CITE-CITE-CITE-CITE-CITE

PPPM initialization ...
  using 12-bit tables for long-range coulomb (../kspace.cpp:340)
  G vector (1/distance) = 0.24521748
  grid = 96 125 120
  stencil order = 5
  estimated absolute RMS force accuracy = 0.042505564
  estimated relative force accuracy = 0.00012800424
  using single precision MKL FFT
  3d grid and FFT values/proc = 47915 36000

--------------------------------------------------------------------------
- Using acceleration for pppm:
-  with 24 proc(s) per device.
-  Horizontal vector operations: ENABLED
-  Shared memory system: No
--------------------------------------------------------------------------
Device 0: Tesla V100-SXM2-16GB, 80 CUs, 8.7/16 GB, 1.5 GHZ (Mixed Precision)
Device 1: Tesla V100-SXM2-16GB, 80 CUs, 1.5 GHZ (Mixed Precision)
--------------------------------------------------------------------------

Initializing Device and compiling on process 0...Done.
Initializing Devices 0-1 on core 0...Done.
Initializing Devices 0-1 on core 1...Done.
Initializing Devices 0-1 on core 2...Done.
Initializing Devices 0-1 on core 3...Done.
Initializing Devices 0-1 on core 4...Done.
Initializing Devices 0-1 on core 5...Done.
Initializing Devices 0-1 on core 6...Done.
Initializing Devices 0-1 on core 7...Done.
Initializing Devices 0-1 on core 8...Done.
Initializing Devices 0-1 on core 9...Done.
Initializing Devices 0-1 on core 10...Done.
Initializing Devices 0-1 on core 11...Done.
Initializing Devices 0-1 on core 12...Done.
Initializing Devices 0-1 on core 13...Done.
Initializing Devices 0-1 on core 14...Done.
Initializing Devices 0-1 on core 15...Done.
Initializing Devices 0-1 on core 16...Done.
Initializing Devices 0-1 on core 17...Done.
Initializing Devices 0-1 on core 18...Done.
Initializing Devices 0-1 on core 19...Done.
Initializing Devices 0-1 on core 20...Done.
Initializing Devices 0-1 on core 21...Done.
Initializing Devices 0-1 on core 22...Done.
Initializing Devices 0-1 on core 23...Done.


--------------------------------------------------------------------------
- Using acceleration for lj/charmm/coul/long:
-  with 24 proc(s) per device.
-  Horizontal vector operations: ENABLED
-  Shared memory system: No
--------------------------------------------------------------------------
Device 0: Tesla V100-SXM2-16GB, 80 CUs, 8.3/16 GB, 1.5 GHZ (Mixed Precision)
Device 1: Tesla V100-SXM2-16GB, 80 CUs, 1.5 GHZ (Mixed Precision)
--------------------------------------------------------------------------

Initializing Device and compiling on process 0...Done.
Initializing Devices 0-1 on core 0...Done.
Initializing Devices 0-1 on core 1...Done.
Initializing Devices 0-1 on core 2...Done.
Initializing Devices 0-1 on core 3...Done.
Initializing Devices 0-1 on core 4...Done.
Initializing Devices 0-1 on core 5...Done.
Initializing Devices 0-1 on core 6...Done.
Initializing Devices 0-1 on core 7...Done.
Initializing Devices 0-1 on core 8...Done.
Initializing Devices 0-1 on core 9...Done.
Initializing Devices 0-1 on core 10...Done.
Initializing Devices 0-1 on core 11...Done.
Initializing Devices 0-1 on core 12...Done.
Initializing Devices 0-1 on core 13...Done.
Initializing Devices 0-1 on core 14...Done.
Initializing Devices 0-1 on core 15...Done.
Initializing Devices 0-1 on core 16...Done.
Initializing Devices 0-1 on core 17...Done.
Initializing Devices 0-1 on core 18...Done.
Initializing Devices 0-1 on core 19...Done.
Initializing Devices 0-1 on core 20...Done.
Initializing Devices 0-1 on core 21...Done.
Initializing Devices 0-1 on core 22...Done.
Initializing Devices 0-1 on core 23...Done.

  generated 2278 of 2278 mixed pair_coeff terms from arithmetic mixing rule
Setting up Verlet run ...
  Unit style    : real
  Current step  : 0
  Time step     : 2
Per MPI rank memory allocation (min/avg/max) = 133.7 | 134 | 134.2 Mbytes
---------------- Step        0 ----- CPU =      0.0000 (sec) ----------------
TotEng   =  -1622757.0485 KinEng   =   1372469.2022 Temp     =       299.0274 
PotEng   =  -2995226.2507 E_bond   =    162431.6167 E_angle  =    698967.9493 
E_dihed  =    333554.3360 E_impro  =     13664.7415 E_vdwl   =   -147703.3196 
E_coul   =  12998901.2598 E_long   = -17055042.8344 Press    =      -148.6931 
Volume   =  19711682.1440 
---------------- Step       50 ----- CPU =      3.9850 (sec) ----------------
TotEng   =  -1621040.3457 KinEng   =   1376072.6018 Temp     =       299.8125 
PotEng   =  -2997112.9475 E_bond   =    158195.5653 E_angle  =    693548.5043 
E_dihed  =    335344.2037 E_impro  =     14535.9730 E_vdwl   =   -127551.9844 
E_coul   =  12984287.7205 E_long   = -17055472.9299 Press    =       238.7546 
Volume   =  19714039.4521 
---------------- Step      100 ----- CPU =      8.1161 (sec) ----------------
TotEng   =  -1618501.4699 KinEng   =   1381843.7729 Temp     =       301.0699 
PotEng   =  -3000345.2428 E_bond   =    164361.2538 E_angle  =    690056.9836 
E_dihed  =    332707.9677 E_impro  =     13870.0758 E_vdwl   =   -121504.8333 
E_coul   =  12975295.1130 E_long   = -17055131.8034 Press    =        11.4605 
Volume   =  19720645.0486 
Loop time of 8.11622 on 48 procs for 100 steps with 2048000 atoms

Performance: 2.129 ns/day, 11.273 hours/ns, 12.321 timesteps/s
95.5% CPU use with 48 MPI tasks x 1 OpenMP threads

MPI task timing breakdown:
Section |  min time  |  avg time  |  max time  |%varavg| %total
---------------------------------------------------------------
Pair    | 0.86002    | 0.9305     | 1.0006     |   3.3 | 11.46
Bond    | 1.5298     | 1.5916     | 1.6767     |   2.9 | 19.61
Kspace  | 2.1271     | 2.2351     | 2.2947     |   2.7 | 27.54
Neigh   | 0.31699    | 0.32159    | 0.32537    |   0.4 |  3.96
Comm    | 0.51053    | 0.56959    | 0.63013    |   5.7 |  7.02
Output  | 0.00055352 | 0.000564   | 0.00062356 |   0.0 |  0.01
Modify  | 2.1227     | 2.263      | 2.4121     |   6.2 | 27.88
Other   |            | 0.2042     |            |       |  2.52

Nlocal:        42666.7 ave       42696 max       42630 min
Histogram: 16 0 0 0 0 0 16 0 0 16
Nghost:        55815.8 ave       55850 max       55795 min
Histogram: 20 8 4 0 0 0 0 0 4 12
Neighs:              0 ave           0 max           0 min
Histogram: 48 0 0 0 0 0 0 0 0 0

Total # of neighbors = 0
Ave neighs/atom = 0
Ave special neighs/atom = 7.431875
Neighbor list builds = 11
Dangerous builds = 0


---------------------------------------------------------------------
      Device Time Info (average): 
---------------------------------------------------------------------
Data Transfer:   0.0199 s.
Neighbor copy:   0.2823 s.
Neighbor build:  0.8791 s.
Force calc:      1.1258 s.
Device Overhead: 0.2462 s.
Average split:   1.0000.
Lanes / atom:    8.
Vector width:    32.
Max Mem / Proc:  198.74 MB.
CPU Neighbor:    0.0721 s.
CPU Cast/Pack:   0.2084 s.
CPU Driver_Time: 0.0036 s.
CPU Idle_Time:   0.0264 s.
---------------------------------------------------------------------



---------------------------------------------------------------------
    Device Time Info (average) for kspace: 
---------------------------------------------------------------------
Data Out:        0.0115 s.
Data In:         0.1566 s.
Kernel (map):    0.6275 s.
Kernel (rho):    0.0204 s.
Force interp:    0.3170 s.
Total rho:       0.6594 s.
Total interp:    0.4737 s.
Force copy:      0.0699 s.
Total:           1.2029 s.
CPU Poisson:     1.3008 s.
CPU Data Cast:   0.0278 s.
CPU Idle Time:   0.9750 s.
Max Mem / Proc:  10.50 MB.
---------------------------------------------------------------------

Total wall time: 0:01:18
Intel(R) VTune(TM) Profiler 2022.2.0 collection completed successfully. Use the "aps --report /home/ubuntu/lammps/bench/aps_result_20220530" command to generate textual and HTML reports for the profiling session.
