LAMMPS (7 Jan 2022)
  using 1 OpenMP thread(s) per MPI task
Reading data file ...
  orthogonal box = (-27.5 -38.5 -36.3646) to (27.5 38.5 36.3615)
  2 by 3 by 2 MPI processor grid
  reading atoms ...
  32000 atoms
  reading velocities ...
  32000 velocities
  scanning bonds ...
  4 = max bonds/atom
  scanning angles ...
  8 = max angles/atom
  scanning dihedrals ...
  18 = max dihedrals/atom
  scanning impropers ...
  2 = max impropers/atom
  reading bonds ...
  27723 bonds
  reading angles ...
  40467 angles
  reading dihedrals ...
  56829 dihedrals
  reading impropers ...
  1034 impropers
Finding 1-2 1-3 1-4 neighbors ...
  special bond factors lj:    0        0        0       
  special bond factors coul:  0        0        0       
     4 = max # of 1-2 neighbors
    12 = max # of 1-3 neighbors
    24 = max # of 1-4 neighbors
    26 = max # of special neighbors
  special bonds CPU = 0.005 seconds
  read_data CPU = 0.397 seconds
Finding SHAKE clusters ...
    1617 = # of size 2 clusters
    3633 = # of size 3 clusters
     747 = # of size 4 clusters
    4233 = # of frozen angles
  find clusters CPU = 0.003 seconds

CITE-CITE-CITE-CITE-CITE-CITE-CITE-CITE-CITE-CITE-CITE-CITE-CITE

Your simulation uses code contributions which should be cited:
- GPU package (short-range, long-range and three-body potentials):
The log file lists these citations in BibTeX format.

CITE-CITE-CITE-CITE-CITE-CITE-CITE-CITE-CITE-CITE-CITE-CITE-CITE

PPPM initialization ...
  using 12-bit tables for long-range coulomb (../kspace.cpp:340)
  G vector (1/distance) = 0.29123956
  grid = 45 54 50
  stencil order = 5
  estimated absolute RMS force accuracy = 0.0035990372
  estimated relative force accuracy = 1.0838394e-05
  using single precision MKL FFT
  3d grid and FFT values/proc = 23200 12150

--------------------------------------------------------------------------
- Using acceleration for pppm:
-  with 3 proc(s) per device.
-  Horizontal vector operations: ENABLED
-  Shared memory system: No
--------------------------------------------------------------------------
Device 0: Tesla V100-SXM2-16GB, 80 CUs, 15/16 GB, 1.5 GHZ (Mixed Precision)
Device 1: Tesla V100-SXM2-16GB, 80 CUs, 1.5 GHZ (Mixed Precision)
Device 2: Tesla V100-SXM2-16GB, 80 CUs, 1.5 GHZ (Mixed Precision)
Device 3: Tesla V100-SXM2-16GB, 80 CUs, 1.5 GHZ (Mixed Precision)
--------------------------------------------------------------------------

Initializing Device and compiling on process 0...Done.
Initializing Devices 0-3 on core 0...Done.
Initializing Devices 0-3 on core 1...Done.
Initializing Devices 0-3 on core 2...Done.


--------------------------------------------------------------------------
- Using acceleration for lj/charmm/coul/long:
-  with 3 proc(s) per device.
-  Horizontal vector operations: ENABLED
-  Shared memory system: No
--------------------------------------------------------------------------
Device 0: Tesla V100-SXM2-16GB, 80 CUs, 15/16 GB, 1.5 GHZ (Mixed Precision)
Device 1: Tesla V100-SXM2-16GB, 80 CUs, 1.5 GHZ (Mixed Precision)
Device 2: Tesla V100-SXM2-16GB, 80 CUs, 1.5 GHZ (Mixed Precision)
Device 3: Tesla V100-SXM2-16GB, 80 CUs, 1.5 GHZ (Mixed Precision)
--------------------------------------------------------------------------

Initializing Device and compiling on process 0...Done.
Initializing Devices 0-3 on core 0...Done.
Initializing Devices 0-3 on core 1...Done.
Initializing Devices 0-3 on core 2...Done.

  generated 2278 of 2278 mixed pair_coeff terms from arithmetic mixing rule
Setting up Verlet run ...
  Unit style    : real
  Current step  : 0
  Time step     : 2
Per MPI rank memory allocation (min/avg/max) = 19.33 | 19.45 | 19.58 Mbytes
---------------- Step        0 ----- CPU =      0.0000 (sec) ----------------
TotEng   =    -25358.7424 KinEng   =     21444.8313 Temp     =       299.0397 
PotEng   =    -46803.5737 E_bond   =      2537.9940 E_angle  =     10921.3742 
E_dihed  =      5211.7865 E_impro  =       213.5116 E_vdwl   =     -2307.8635 
E_coul   =    252888.7510 E_long   =   -316269.1274 Press    =      -152.7826 
Volume   =    307995.0335 
---------------- Step       50 ----- CPU =      0.3671 (sec) ----------------
TotEng   =    -25333.3282 KinEng   =     21500.9259 Temp     =       299.8219 
PotEng   =    -46834.2541 E_bond   =      2471.6404 E_angle  =     10836.6045 
E_dihed  =      5239.4719 E_impro  =       227.1338 E_vdwl   =     -1992.5857 
E_coul   =    252663.4872 E_long   =   -316280.0062 Press    =       234.9349 
Volume   =    308031.0998 
---------------- Step      100 ----- CPU =      0.7308 (sec) ----------------
TotEng   =    -25289.9433 KinEng   =     21588.3537 Temp     =       301.0410 
PotEng   =    -46878.2970 E_bond   =      2567.8200 E_angle  =     10781.4119 
E_dihed  =      5198.5505 E_impro  =       216.7999 E_vdwl   =     -1900.6538 
E_coul   =    252531.4831 E_long   =   -316273.7085 Press    =        12.3266 
Volume   =    308132.3435 
---------------- Step      150 ----- CPU =      1.0791 (sec) ----------------
TotEng   =    -25257.5774 KinEng   =     21552.3254 Temp     =       300.5386 
PotEng   =    -46809.9028 E_bond   =      2555.7224 E_angle  =     10856.1435 
E_dihed  =      5264.1225 E_impro  =       203.0458 E_vdwl   =     -2061.2373 
E_coul   =    252630.8159 E_long   =   -316258.5157 Press    =       248.1146 
Volume   =    308514.1750 
---------------- Step      200 ----- CPU =      1.4190 (sec) ----------------
TotEng   =    -25061.4125 KinEng   =     21489.4287 Temp     =       299.6616 
PotEng   =    -46550.8413 E_bond   =      2492.2108 E_angle  =     11073.3802 
E_dihed  =      5224.5397 E_impro  =       232.2836 E_vdwl   =     -2120.4246 
E_coul   =    252827.5715 E_long   =   -316280.4024 Press    =        89.8787 
Volume   =    308993.3846 
---------------- Step      250 ----- CPU =      1.7726 (sec) ----------------
TotEng   =    -24880.8335 KinEng   =     21546.8943 Temp     =       300.4629 
PotEng   =    -46427.7278 E_bond   =      2555.7929 E_angle  =     11112.1698 
E_dihed  =      5253.2134 E_impro  =       221.0509 E_vdwl   =     -2193.3053 
E_coul   =    252898.7876 E_long   =   -316275.4371 Press    =      -166.8556 
Volume   =    309415.6462 
---------------- Step      300 ----- CPU =      2.1238 (sec) ----------------
TotEng   =    -24878.1581 KinEng   =     21557.8944 Temp     =       300.6163 
PotEng   =    -46436.0525 E_bond   =      2563.6303 E_angle  =     10922.1244 
E_dihed  =      5229.7087 E_impro  =       225.2346 E_vdwl   =     -2133.3546 
E_coul   =    253014.9700 E_long   =   -316258.3660 Press    =      -363.7964 
Volume   =    309775.4560 
---------------- Step      350 ----- CPU =      2.4757 (sec) ----------------
TotEng   =    -25045.3063 KinEng   =     21550.1166 Temp     =       300.5078 
PotEng   =    -46595.4228 E_bond   =      2592.4843 E_angle  =     11017.4487 
E_dihed  =      5221.8323 E_impro  =       207.0880 E_vdwl   =     -2215.1024 
E_coul   =    252842.7081 E_long   =   -316261.8818 Press    =      -438.3832 
Volume   =    310056.1158 
---------------- Step      400 ----- CPU =      2.8167 (sec) ----------------
TotEng   =    -25230.5910 KinEng   =     21436.8752 Temp     =       298.9287 
PotEng   =    -46667.4662 E_bond   =      2539.9549 E_angle  =     11001.9417 
E_dihed  =      5171.8814 E_impro  =       217.2436 E_vdwl   =     -2268.1176 
E_coul   =    252940.7734 E_long   =   -316271.1435 Press    =       129.0000 
Volume   =    310142.3709 
---------------- Step      450 ----- CPU =      3.1674 (sec) ----------------
TotEng   =    -25268.9463 KinEng   =     21495.9431 Temp     =       299.7524 
PotEng   =    -46764.8894 E_bond   =      2520.6784 E_angle  =     10882.4163 
E_dihed  =      5277.8119 E_impro  =       221.5735 E_vdwl   =     -2206.1002 
E_coul   =    252804.7532 E_long   =   -316266.0225 Press    =       211.7717 
Volume   =    310088.1906 
---------------- Step      500 ----- CPU =      3.5264 (sec) ----------------
TotEng   =    -25090.3348 KinEng   =     21473.7861 Temp     =       299.4434 
PotEng   =    -46564.1209 E_bond   =      2604.7432 E_angle  =     10942.4557 
E_dihed  =      5221.8977 E_impro  =       210.0612 E_vdwl   =     -2154.1525 
E_coul   =    252865.2031 E_long   =   -316254.3294 Press    =      -283.7595 
Volume   =    309946.4937 
---------------- Step      550 ----- CPU =      3.8707 (sec) ----------------
TotEng   =    -24817.6833 KinEng   =     21666.3627 Temp     =       302.1288 
PotEng   =    -46484.0460 E_bond   =      2535.2741 E_angle  =     10954.7414 
E_dihed  =      5224.5621 E_impro  =       235.7812 E_vdwl   =     -2147.0222 
E_coul   =    252982.1081 E_long   =   -316269.4906 Press    =       134.6700 
Volume   =    309828.2757 
---------------- Step      600 ----- CPU =      4.2207 (sec) ----------------
TotEng   =    -24694.5620 KinEng   =     21691.1509 Temp     =       302.4745 
PotEng   =    -46385.7129 E_bond   =      2584.1091 E_angle  =     11046.0684 
E_dihed  =      5267.4495 E_impro  =       236.5123 E_vdwl   =     -2036.6036 
E_coul   =    252797.9243 E_long   =   -316281.1728 Press    =       -35.6121 
Volume   =    309737.0888 
Loop time of 4.22081 on 12 procs for 600 steps with 32000 atoms

Performance: 24.564 ns/day, 0.977 hours/ns, 142.153 timesteps/s
98.1% CPU use with 12 MPI tasks x 1 OpenMP threads

MPI task timing breakdown:
Section |  min time  |  avg time  |  max time  |%varavg| %total
---------------------------------------------------------------
Pair    | 0.43776    | 0.48307    | 0.54793    |   5.3 | 11.44
Bond    | 0.56432    | 0.62023    | 0.69472    |   4.8 | 14.69
Kspace  | 1.2218     | 1.2839     | 1.3456     |   3.2 | 30.42
Neigh   | 0.052592   | 0.052939   | 0.053583   |   0.1 |  1.25
Comm    | 0.23129    | 0.30458    | 0.32568    |   6.0 |  7.22
Output  | 0.00092162 | 0.00095363 | 0.0012244  |   0.0 |  0.02
Modify  | 1.2613     | 1.3555     | 1.4983     |   5.7 | 32.11
Other   |            | 0.1196     |            |       |  2.83

Nlocal:        2666.67 ave        2719 max        2608 min
Histogram: 2 0 2 2 0 0 1 1 2 2
Nghost:        13203.8 ave       13293 max       13108 min
Histogram: 1 1 0 2 1 4 0 0 1 2
Neighs:              0 ave           0 max           0 min
Histogram: 12 0 0 0 0 0 0 0 0 0

Total # of neighbors = 0
Ave neighs/atom = 0
Ave special neighs/atom = 7.431875
Neighbor list builds = 66
Dangerous builds = 0


---------------------------------------------------------------------
      Device Time Info (average): 
---------------------------------------------------------------------
Data Transfer:   0.0234 s.
Neighbor copy:   0.0425 s.
Neighbor build:  0.1335 s.
Force calc:      0.3901 s.
Device Overhead: 0.2200 s.
Average split:   1.0000.
Lanes / atom:    8.
Vector width:    32.
Max Mem / Proc:  13.19 MB.
CPU Neighbor:    0.0269 s.
CPU Cast/Pack:   0.0695 s.
CPU Driver_Time: 0.0172 s.
CPU Idle_Time:   0.0031 s.
---------------------------------------------------------------------



---------------------------------------------------------------------
    Device Time Info (average) for kspace: 
---------------------------------------------------------------------
Data Out:        0.0190 s.
Data In:         0.1592 s.
Kernel (map):    0.2051 s.
Kernel (rho):    0.0499 s.
Force interp:    0.1388 s.
Total rho:       0.2741 s.
Total interp:    0.2980 s.
Force copy:      0.0156 s.
Total:           0.5877 s.
CPU Poisson:     1.0908 s.
CPU Data Cast:   0.0072 s.
CPU Idle Time:   0.1503 s.
Max Mem / Proc:  3.02 MB.
---------------------------------------------------------------------

Total wall time: 0:00:19
Intel(R) VTune(TM) Profiler 2022.2.0 collection completed successfully. Use the "aps --report /home/ubuntu/lammps/bench/aps_result_20220531" command to generate textual and HTML reports for the profiling session.
