LAMMPS (7 Jan 2022)
  using 1 OpenMP thread(s) per MPI task
Reading data file ...
  orthogonal box = (-27.5 -38.5 -36.3646) to (27.5 38.5 36.3615)
  2 by 3 by 2 MPI processor grid
  reading atoms ...
  32000 atoms
  reading velocities ...
  32000 velocities
  scanning bonds ...
  4 = max bonds/atom
  scanning angles ...
  8 = max angles/atom
  scanning dihedrals ...
  18 = max dihedrals/atom
  scanning impropers ...
  2 = max impropers/atom
  reading bonds ...
  27723 bonds
  reading angles ...
  40467 angles
  reading dihedrals ...
  56829 dihedrals
  reading impropers ...
  1034 impropers
Finding 1-2 1-3 1-4 neighbors ...
  special bond factors lj:    0        0        0       
  special bond factors coul:  0        0        0       
     4 = max # of 1-2 neighbors
    12 = max # of 1-3 neighbors
    24 = max # of 1-4 neighbors
    26 = max # of special neighbors
  special bonds CPU = 0.005 seconds
  read_data CPU = 0.395 seconds
Finding SHAKE clusters ...
    1617 = # of size 2 clusters
    3633 = # of size 3 clusters
     747 = # of size 4 clusters
    4233 = # of frozen angles
  find clusters CPU = 0.003 seconds

CITE-CITE-CITE-CITE-CITE-CITE-CITE-CITE-CITE-CITE-CITE-CITE-CITE

Your simulation uses code contributions which should be cited:
- GPU package (short-range, long-range and three-body potentials):
The log file lists these citations in BibTeX format.

CITE-CITE-CITE-CITE-CITE-CITE-CITE-CITE-CITE-CITE-CITE-CITE-CITE

PPPM initialization ...
  using 12-bit tables for long-range coulomb (../kspace.cpp:340)
  G vector (1/distance) = 0.24883488
  grid = 25 32 32
  stencil order = 5
  estimated absolute RMS force accuracy = 0.035547797
  estimated relative force accuracy = 0.00010705113
  using single precision MKL FFT
  3d grid and FFT values/proc = 6426 2400

--------------------------------------------------------------------------
- Using acceleration for pppm:
-  with 6 proc(s) per device.
-  Horizontal vector operations: ENABLED
-  Shared memory system: No
--------------------------------------------------------------------------
Device 0: Tesla V100-SXM2-16GB, 80 CUs, 14/16 GB, 1.5 GHZ (Single Precision)
Device 1: Tesla V100-SXM2-16GB, 80 CUs, 1.5 GHZ (Single Precision)
--------------------------------------------------------------------------

Initializing Device and compiling on process 0...Done.
Initializing Devices 0-1 on core 0...Done.
Initializing Devices 0-1 on core 1...Done.
Initializing Devices 0-1 on core 2...Done.
Initializing Devices 0-1 on core 3...Done.
Initializing Devices 0-1 on core 4...Done.
Initializing Devices 0-1 on core 5...Done.


--------------------------------------------------------------------------
- Using acceleration for lj/charmm/coul/long:
-  with 6 proc(s) per device.
-  Horizontal vector operations: ENABLED
-  Shared memory system: No
--------------------------------------------------------------------------
Device 0: Tesla V100-SXM2-16GB, 80 CUs, 14/16 GB, 1.5 GHZ (Single Precision)
Device 1: Tesla V100-SXM2-16GB, 80 CUs, 1.5 GHZ (Single Precision)
--------------------------------------------------------------------------

Initializing Device and compiling on process 0...Done.
Initializing Devices 0-1 on core 0...Done.
Initializing Devices 0-1 on core 1...Done.
Initializing Devices 0-1 on core 2...Done.
Initializing Devices 0-1 on core 3...Done.
Initializing Devices 0-1 on core 4...Done.
Initializing Devices 0-1 on core 5...Done.

  generated 2278 of 2278 mixed pair_coeff terms from arithmetic mixing rule
Setting up Verlet run ...
  Unit style    : real
  Current step  : 0
  Time step     : 2
Per MPI rank memory allocation (min/avg/max) = 18.46 | 18.55 | 18.69 Mbytes
---------------- Step        0 ----- CPU =      0.0000 (sec) ----------------
TotEng   =    -25356.2686 KinEng   =     21444.8313 Temp     =       299.0397 
PotEng   =    -46801.0999 E_bond   =      2537.9940 E_angle  =     10921.3742 
E_dihed  =      5211.7865 E_impro  =       213.5116 E_vdwl   =     -2307.8634 
E_coul   =    207025.8394 E_long   =   -270403.7421 Press    =      -149.3320 
Volume   =    307995.0335 
---------------- Step       50 ----- CPU =      0.3070 (sec) ----------------
TotEng   =    -25330.0840 KinEng   =     21500.9987 Temp     =       299.8229 
PotEng   =    -46831.0827 E_bond   =      2471.7037 E_angle  =     10836.5110 
E_dihed  =      5239.6320 E_impro  =       227.1218 E_vdwl   =     -1993.2899 
E_coul   =    206797.6399 E_long   =   -270410.4012 Press    =       237.6535 
Volume   =    308031.6776 
---------------- Step      100 ----- CPU =      0.6128 (sec) ----------------
TotEng   =    -25290.7886 KinEng   =     21591.9068 Temp     =       301.0906 
PotEng   =    -46882.6954 E_bond   =      2567.9808 E_angle  =     10781.9575 
E_dihed  =      5198.7494 E_impro  =       216.7865 E_vdwl   =     -1902.6673 
E_coul   =    206659.4801 E_long   =   -270404.9823 Press    =         6.7302 
Volume   =    308134.2323 
---------------- Step      150 ----- CPU =      0.9074 (sec) ----------------
TotEng   =    -25258.1091 KinEng   =     21529.6781 Temp     =       300.2228 
PotEng   =    -46787.7872 E_bond   =      2556.3456 E_angle  =     10852.7825 
E_dihed  =      5265.2321 E_impro  =       203.0688 E_vdwl   =     -2066.1609 
E_coul   =    206797.4319 E_long   =   -270396.4872 Press    =       251.4712 
Volume   =    308515.2423 
---------------- Step      200 ----- CPU =      1.2126 (sec) ----------------
TotEng   =    -25078.8856 KinEng   =     21571.1222 Temp     =       300.8008 
PotEng   =    -46650.0078 E_bond   =      2488.6926 E_angle  =     11073.4415 
E_dihed  =      5221.7522 E_impro  =       232.8565 E_vdwl   =     -2167.6329 
E_coul   =    206903.0050 E_long   =   -270402.1228 Press    =        20.8387 
Volume   =    308997.5436 
---------------- Step      250 ----- CPU =      1.5160 (sec) ----------------
TotEng   =    -24944.3200 KinEng   =     21547.7022 Temp     =       300.4742 
PotEng   =    -46492.0222 E_bond   =      2542.5550 E_angle  =     11105.5180 
E_dihed  =      5239.6477 E_impro  =       212.3485 E_vdwl   =     -2168.7782 
E_coul   =    206988.8106 E_long   =   -270412.1238 Press    =      -169.8911 
Volume   =    309388.1260 
---------------- Step      300 ----- CPU =      1.8161 (sec) ----------------
TotEng   =    -24999.5032 KinEng   =     21497.0459 Temp     =       299.7678 
PotEng   =    -46496.5491 E_bond   =      2558.0654 E_angle  =     10921.9942 
E_dihed  =      5211.0050 E_impro  =       222.1545 E_vdwl   =     -2217.4140 
E_coul   =    207194.1542 E_long   =   -270386.5084 Press    =      -369.4712 
Volume   =    309663.8246 
---------------- Step      350 ----- CPU =      2.1201 (sec) ----------------
TotEng   =    -25129.3330 KinEng   =     21468.4459 Temp     =       299.3690 
PotEng   =    -46597.7789 E_bond   =      2580.9157 E_angle  =     10950.9706 
E_dihed  =      5250.6748 E_impro  =       212.7025 E_vdwl   =     -2175.2379 
E_coul   =    206983.1186 E_long   =   -270400.9234 Press    =      -338.4722 
Volume   =    309801.5367 
---------------- Step      400 ----- CPU =      2.4167 (sec) ----------------
TotEng   =    -25205.2779 KinEng   =     21441.1472 Temp     =       298.9883 
PotEng   =    -46646.4251 E_bond   =      2526.1569 E_angle  =     10966.2644 
E_dihed  =      5205.5772 E_impro  =       213.1621 E_vdwl   =     -2170.2357 
E_coul   =    207027.7125 E_long   =   -270415.0624 Press    =       197.2055 
Volume   =    309816.4093 
---------------- Step      450 ----- CPU =      2.7217 (sec) ----------------
TotEng   =    -25160.0276 KinEng   =     21476.9153 Temp     =       299.4871 
PotEng   =    -46636.9429 E_bond   =      2496.4317 E_angle  =     10955.8353 
E_dihed  =      5238.9115 E_impro  =       224.6877 E_vdwl   =     -2278.1140 
E_coul   =    207112.4404 E_long   =   -270387.1355 Press    =       154.3576 
Volume   =    309769.9796 
---------------- Step      500 ----- CPU =      3.0190 (sec) ----------------
TotEng   =    -24950.6181 KinEng   =     21669.8012 Temp     =       302.1768 
PotEng   =    -46620.4193 E_bond   =      2571.1089 E_angle  =     10946.8786 
E_dihed  =      5264.0583 E_impro  =       219.0367 E_vdwl   =     -2224.6352 
E_coul   =    206996.0197 E_long   =   -270392.8863 Press    =      -333.2762 
Volume   =    309742.9725 
---------------- Step      550 ----- CPU =      3.3241 (sec) ----------------
TotEng   =    -24874.0763 KinEng   =     21679.5268 Temp     =       302.3124 
PotEng   =    -46553.6032 E_bond   =      2517.3301 E_angle  =     10948.1240 
E_dihed  =      5215.0637 E_impro  =       224.1746 E_vdwl   =     -2070.1479 
E_coul   =    207006.0984 E_long   =   -270394.2461 Press    =       377.7964 
Volume   =    309698.3356 
---------------- Step      600 ----- CPU =      3.6212 (sec) ----------------
TotEng   =    -24924.3664 KinEng   =     21713.8385 Temp     =       302.7909 
PotEng   =    -46638.2049 E_bond   =      2571.7628 E_angle  =     10911.6718 
E_dihed  =      5248.7149 E_impro  =       217.0248 E_vdwl   =     -2192.8122 
E_coul   =    207008.2149 E_long   =   -270402.7819 Press    =        76.5684 
Volume   =    309885.4882 
Loop time of 3.62131 on 12 procs for 600 steps with 32000 atoms

Performance: 28.631 ns/day, 0.838 hours/ns, 165.686 timesteps/s
96.5% CPU use with 12 MPI tasks x 1 OpenMP threads

MPI task timing breakdown:
Section |  min time  |  avg time  |  max time  |%varavg| %total
---------------------------------------------------------------
Pair    | 0.79856    | 0.8436     | 0.87299    |   2.2 | 23.30
Bond    | 0.55063    | 0.61071    | 0.71618    |   6.1 | 16.86
Kspace  | 0.9605     | 1.0644     | 1.1295     |   4.8 | 29.39
Neigh   | 0.046976   | 0.047784   | 0.048483   |   0.2 |  1.32
Comm    | 0.22528    | 0.23874    | 0.26574    |   3.5 |  6.59
Output  | 0.0008714  | 0.00089966 | 0.0011517  |   0.0 |  0.02
Modify  | 0.69924    | 0.77392    | 0.85105    |   5.0 | 21.37
Other   |            | 0.04122    |            |       |  1.14

Nlocal:        2666.67 ave        2720 max        2618 min
Histogram: 1 3 1 2 0 1 0 1 0 3
Nghost:        13239.5 ave       13318 max       13137 min
Histogram: 1 1 2 1 0 0 2 1 2 2
Neighs:              0 ave           0 max           0 min
Histogram: 12 0 0 0 0 0 0 0 0 0

Total # of neighbors = 0
Ave neighs/atom = 0
Ave special neighs/atom = 7.431875
Neighbor list builds = 66
Dangerous builds = 0


---------------------------------------------------------------------
      Device Time Info (average): 
---------------------------------------------------------------------
Data Transfer:   0.0208 s.
Neighbor copy:   0.0645 s.
Neighbor build:  0.2147 s.
Force calc:      0.7671 s.
Device Overhead: 0.3929 s.
Average split:   1.0000.
Lanes / atom:    8.
Vector width:    32.
Max Mem / Proc:  13.05 MB.
CPU Neighbor:    0.0268 s.
CPU Cast/Pack:   0.0690 s.
CPU Driver_Time: 0.0176 s.
CPU Idle_Time:   0.0754 s.
---------------------------------------------------------------------



---------------------------------------------------------------------
    Device Time Info (average) for kspace: 
---------------------------------------------------------------------
Data Out:        0.0140 s.
Data In:         0.0253 s.
Kernel (map):    0.4913 s.
Kernel (rho):    0.0696 s.
Force interp:    0.4622 s.
Total rho:       0.5749 s.
Total interp:    0.4874 s.
Force copy:      0.0105 s.
Total:           1.0728 s.
CPU Poisson:     0.6057 s.
CPU Data Cast:   0.0053 s.
CPU Idle Time:   0.4255 s.
Max Mem / Proc:  0.74 MB.
---------------------------------------------------------------------

Total wall time: 0:00:18
Intel(R) VTune(TM) Profiler 2022.2.0 collection completed successfully. Use the "aps --report /home/ubuntu/lammps/bench/aps_result_20220609" command to generate textual and HTML reports for the profiling session.
