LAMMPS (7 Jan 2022)
  using 1 OpenMP thread(s) per MPI task
New timer settings: style=full  mode=sync  timeout=off
Reading data file ...
  orthogonal box = (-27.5 -38.5 -36.3646) to (27.5 38.5 36.3615)
  2 by 4 by 4 MPI processor grid
  reading atoms ...
  32000 atoms
  reading velocities ...
  32000 velocities
  scanning bonds ...
  4 = max bonds/atom
  scanning angles ...
  8 = max angles/atom
  scanning dihedrals ...
  18 = max dihedrals/atom
  scanning impropers ...
  2 = max impropers/atom
  reading bonds ...
  27723 bonds
  reading angles ...
  40467 angles
  reading dihedrals ...
  56829 dihedrals
  reading impropers ...
  1034 impropers
Finding 1-2 1-3 1-4 neighbors ...
  special bond factors lj:    0        0        0       
  special bond factors coul:  0        0        0       
     4 = max # of 1-2 neighbors
    12 = max # of 1-3 neighbors
    24 = max # of 1-4 neighbors
    26 = max # of special neighbors
  special bonds CPU = 0.006 seconds
  read_data CPU = 0.317 seconds
Replicating atoms ...
  orthogonal box = (-27.5 -38.5 -36.3646) to (82.5 115.5 109.0876)
  2 by 4 by 4 MPI processor grid
  256000 atoms
  221784 bonds
  323736 angles
  454632 dihedrals
  8272 impropers
Finding 1-2 1-3 1-4 neighbors ...
  special bond factors lj:    0        0        0       
  special bond factors coul:  0        0        0       
     4 = max # of 1-2 neighbors
    12 = max # of 1-3 neighbors
    24 = max # of 1-4 neighbors
    26 = max # of special neighbors
  special bonds CPU = 0.017 seconds
  replicate CPU = 0.054 seconds
Finding SHAKE clusters ...
   12936 = # of size 2 clusters
   29064 = # of size 3 clusters
    5976 = # of size 4 clusters
   33864 = # of frozen angles
  find clusters CPU = 0.009 seconds

CITE-CITE-CITE-CITE-CITE-CITE-CITE-CITE-CITE-CITE-CITE-CITE-CITE

Your simulation uses code contributions which should be cited:
- GPU package (short-range, long-range and three-body potentials):
The log file lists these citations in BibTeX format.

CITE-CITE-CITE-CITE-CITE-CITE-CITE-CITE-CITE-CITE-CITE-CITE-CITE

PPPM initialization ...
  using 12-bit tables for long-range coulomb (../kspace.cpp:340)
  G vector (1/distance) = 0.24587501
  grid = 48 64 60
  stencil order = 5
  estimated absolute RMS force accuracy = 0.041154918
  estimated relative force accuracy = 0.00012393681
  using single precision MKL FFT
  3d grid and FFT values/proc = 12180 6144

--------------------------------------------------------------------------
- Using acceleration for pppm:
-  with 8 proc(s) per device.
-  Horizontal vector operations: ENABLED
-  Shared memory system: No
--------------------------------------------------------------------------
Device 0: Tesla V100-SXM2-16GB, 80 CUs, 13/16 GB, 1.5 GHZ (Mixed Precision)
Device 1: Tesla V100-SXM2-16GB, 80 CUs, 1.5 GHZ (Mixed Precision)
Device 2: Tesla V100-SXM2-16GB, 80 CUs, 1.5 GHZ (Mixed Precision)
Device 3: Tesla V100-SXM2-16GB, 80 CUs, 1.5 GHZ (Mixed Precision)
--------------------------------------------------------------------------

Initializing Device and compiling on process 0...Done.
Initializing Devices 0-3 on core 0...Done.
Initializing Devices 0-3 on core 1...Done.
Initializing Devices 0-3 on core 2...Done.
Initializing Devices 0-3 on core 3...Done.
Initializing Devices 0-3 on core 4...Done.
Initializing Devices 0-3 on core 5...Done.
Initializing Devices 0-3 on core 6...Done.
Initializing Devices 0-3 on core 7...Done.


--------------------------------------------------------------------------
- Using acceleration for lj/charmm/coul/long:
-  with 8 proc(s) per device.
-  Horizontal vector operations: ENABLED
-  Shared memory system: No
--------------------------------------------------------------------------
Device 0: Tesla V100-SXM2-16GB, 80 CUs, 13/16 GB, 1.5 GHZ (Mixed Precision)
Device 1: Tesla V100-SXM2-16GB, 80 CUs, 1.5 GHZ (Mixed Precision)
Device 2: Tesla V100-SXM2-16GB, 80 CUs, 1.5 GHZ (Mixed Precision)
Device 3: Tesla V100-SXM2-16GB, 80 CUs, 1.5 GHZ (Mixed Precision)
--------------------------------------------------------------------------

Initializing Device and compiling on process 0...Done.
Initializing Devices 0-3 on core 0...Done.
Initializing Devices 0-3 on core 1...Done.
Initializing Devices 0-3 on core 2...Done.
Initializing Devices 0-3 on core 3...Done.
Initializing Devices 0-3 on core 4...Done.
Initializing Devices 0-3 on core 5...Done.
Initializing Devices 0-3 on core 6...Done.
Initializing Devices 0-3 on core 7...Done.

  generated 2278 of 2278 mixed pair_coeff terms from arithmetic mixing rule
Setting up Verlet run ...
  Unit style    : real
  Current step  : 0
  Time step     : 2
Per MPI rank memory allocation (min/avg/max) = 37.65 | 37.69 | 37.7 Mbytes
---------------- Step        0 ----- CPU =      0.0000 (sec) ----------------
TotEng   =   -202846.6815 KinEng   =    171558.6503 Temp     =       299.0288 
PotEng   =   -374405.3317 E_bond   =     20303.9521 E_angle  =     87370.9937 
E_dihed  =     41694.2920 E_impro  =      1708.0927 E_vdwl   =    -18462.9051 
E_coul   =   1630560.2223 E_long   =  -2137579.9794 Press    =      -148.7798 
Volume   =   2463960.2680 
---------------- Step       50 ----- CPU =      0.6303 (sec) ----------------
TotEng   =   -202633.4062 KinEng   =    172010.7458 Temp     =       299.8168 
PotEng   =   -374644.1519 E_bond   =     19774.3529 E_angle  =     86693.5109 
E_dihed  =     41917.8103 E_impro  =      1817.0672 E_vdwl   =    -15943.3777 
E_coul   =   1628731.1882 E_long   =  -2137634.7038 Press    =       238.5779 
Volume   =   2464254.6358 
---------------- Step      100 ----- CPU =      1.3165 (sec) ----------------
TotEng   =   -202315.0406 KinEng   =    172724.4059 Temp     =       301.0607 
PotEng   =   -375039.4465 E_bond   =     20545.2208 E_angle  =     86257.3354 
E_dihed  =     41587.6732 E_impro  =      1733.5572 E_vdwl   =    -15187.8557 
E_coul   =   1627614.3849 E_long   =  -2137589.7624 Press    =        10.9145 
Volume   =   2465078.7633 
Loop time of 1.3166 on 32 procs for 100 steps with 256000 atoms

Performance: 13.125 ns/day, 1.829 hours/ns, 75.953 timesteps/s
98.0% CPU use with 32 MPI tasks x 1 OpenMP threads

MPI task timing breakdown:
Section |  min time  |  avg time  |  max time  |%varavg|  %CPU | %total
-----------------------------------------------------------------------
Pair    | 0.14487    | 0.16198    | 0.17675    |   2.9 |  97.7 | 12.30
Bond    | 0.26314    | 0.27772    | 0.30617    |   2.3 |  99.8 | 21.09
Kspace  | 0.22883    | 0.22928    | 0.23015    |   0.0 |  96.9 | 17.41
Neigh   | 0.046098   | 0.046105   | 0.046116   |   0.0 |  98.2 |  3.50
Comm    | 0.11157    | 0.11244    | 0.11433    |   0.2 |  95.7 |  8.54
Output  | 0.00024971 | 0.00025262 | 0.00031663 |   0.0 | 100.0 |  0.02
Modify  | 0.28875    | 0.33134    | 0.33926    |   2.5 |  98.5 | 25.17
Sync    | 0.091813   | 0.13541    | 0.19542    |   6.1 |  97.4 | 10.28
Other   |            | 0.1575     |            |       |       | 11.96

Nlocal:           8000 ave        8143 max        7933 min
Histogram: 8 16 0 0 0 0 0 0 0 8
Nghost:        22735.5 ave       22770 max       22697 min
Histogram: 8 0 0 0 0 16 0 0 0 8
Neighs:              0 ave           0 max           0 min
Histogram: 32 0 0 0 0 0 0 0 0 0

Total # of neighbors = 0
Ave neighs/atom = 0
Ave special neighs/atom = 7.431875
Neighbor list builds = 11
Dangerous builds = 0


---------------------------------------------------------------------
      Device Time Info (average): 
---------------------------------------------------------------------
Data Transfer:   0.0067 s.
Neighbor copy:   0.0369 s.
Neighbor build:  0.0560 s.
Force calc:      0.1990 s.
Device Overhead: 0.0802 s.
Average split:   1.0000.
Lanes / atom:    8.
Vector width:    32.
Max Mem / Proc:  38.51 MB.
CPU Neighbor:    0.0187 s.
CPU Cast/Pack:   0.0337 s.
CPU Driver_Time: 0.0018 s.
CPU Idle_Time:   0.0019 s.
---------------------------------------------------------------------



---------------------------------------------------------------------
    Device Time Info (average) for kspace: 
---------------------------------------------------------------------
Data Out:        0.0031 s.
Data In:         0.0248 s.
Kernel (map):    0.1306 s.
Kernel (rho):    0.0142 s.
Force interp:    0.0623 s.
Total rho:       0.1480 s.
Total interp:    0.0871 s.
Force copy:      0.0048 s.
Total:           0.2398 s.
CPU Poisson:     0.1560 s.
CPU Data Cast:   0.0037 s.
CPU Idle Time:   0.0738 s.
Max Mem / Proc:  2.11 MB.
---------------------------------------------------------------------

Total wall time: 0:00:20
Intel(R) VTune(TM) Profiler 2022.1.0 collection completed successfully. Use the "aps --report /home/ubuntu/lammps/bench/aps_result_20220414" command to generate textual and HTML reports for the profiling session.
