LAMMPS (7 Jan 2022)
  using 1 OpenMP thread(s) per MPI task
New timer settings: style=full  mode=nosync  timeout=off
Reading data file ...
  orthogonal box = (-27.5 -38.5 -36.3646) to (27.5 38.5 36.3615)
  3 by 4 by 3 MPI processor grid
  reading atoms ...
  32000 atoms
  reading velocities ...
  32000 velocities
  scanning bonds ...
  4 = max bonds/atom
  scanning angles ...
  8 = max angles/atom
  scanning dihedrals ...
  18 = max dihedrals/atom
  scanning impropers ...
  2 = max impropers/atom
  reading bonds ...
  27723 bonds
  reading angles ...
  40467 angles
  reading dihedrals ...
  56829 dihedrals
  reading impropers ...
  1034 impropers
Finding 1-2 1-3 1-4 neighbors ...
  special bond factors lj:    0        0        0       
  special bond factors coul:  0        0        0       
     4 = max # of 1-2 neighbors
    12 = max # of 1-3 neighbors
    24 = max # of 1-4 neighbors
    26 = max # of special neighbors
  special bonds CPU = 0.007 seconds
  read_data CPU = 0.320 seconds
Replicating atoms ...
  orthogonal box = (-27.5 -38.5 -36.3646) to (137.5 192.5 181.8137)
  3 by 4 by 3 MPI processor grid
  864000 atoms
  748521 bonds
  1092609 angles
  1534383 dihedrals
  27918 impropers
Finding 1-2 1-3 1-4 neighbors ...
  special bond factors lj:    0        0        0       
  special bond factors coul:  0        0        0       
     4 = max # of 1-2 neighbors
    12 = max # of 1-3 neighbors
    24 = max # of 1-4 neighbors
    26 = max # of special neighbors
  special bonds CPU = 0.046 seconds
  replicate CPU = 0.109 seconds
Finding SHAKE clusters ...
   43659 = # of size 2 clusters
   98091 = # of size 3 clusters
   20169 = # of size 4 clusters
  114291 = # of frozen angles
  find clusters CPU = 0.022 seconds

CITE-CITE-CITE-CITE-CITE-CITE-CITE-CITE-CITE-CITE-CITE-CITE-CITE

Your simulation uses code contributions which should be cited:
- GPU package (short-range, long-range and three-body potentials):
The log file lists these citations in BibTeX format.

CITE-CITE-CITE-CITE-CITE-CITE-CITE-CITE-CITE-CITE-CITE-CITE-CITE

PPPM initialization ...
  using 12-bit tables for long-range coulomb (../kspace.cpp:340)
  G vector (1/distance) = 0.24587501
  grid = 72 96 90
  stencil order = 5
  estimated absolute RMS force accuracy = 0.041154918
  estimated relative force accuracy = 0.00012393681
  using single precision MKL FFT
  3d grid and FFT values/proc = 29435 20736

--------------------------------------------------------------------------
- Using acceleration for pppm:
-  with 36 proc(s) per device.
-  Horizontal vector operations: ENABLED
-  Shared memory system: No
--------------------------------------------------------------------------
Device 0: Tesla V100-SXM2-16GB, 80 CUs, 5.1/16 GB, 1.5 GHZ (Mixed Precision)
--------------------------------------------------------------------------

Initializing Device and compiling on process 0...Done.
Initializing Device 0 on core 0...Done.
Initializing Device 0 on core 1...Done.
Initializing Device 0 on core 2...Done.
Initializing Device 0 on core 3...Done.
Initializing Device 0 on core 4...Done.
Initializing Device 0 on core 5...Done.
Initializing Device 0 on core 6...Done.
Initializing Device 0 on core 7...Done.
Initializing Device 0 on core 8...Done.
Initializing Device 0 on core 9...Done.
Initializing Device 0 on core 10...Done.
Initializing Device 0 on core 11...Done.
Initializing Device 0 on core 12...Done.
Initializing Device 0 on core 13...Done.
Initializing Device 0 on core 14...Done.
Initializing Device 0 on core 15...Done.
Initializing Device 0 on core 16...Done.
Initializing Device 0 on core 17...Done.
Initializing Device 0 on core 18...Done.
Initializing Device 0 on core 19...Done.
Initializing Device 0 on core 20...Done.
Initializing Device 0 on core 21...Done.
Initializing Device 0 on core 22...Done.
Initializing Device 0 on core 23...Done.
Initializing Device 0 on core 24...Done.
Initializing Device 0 on core 25...Done.
Initializing Device 0 on core 26...Done.
Initializing Device 0 on core 27...Done.
Initializing Device 0 on core 28...Done.
Initializing Device 0 on core 29...Done.
Initializing Device 0 on core 30...Done.
Initializing Device 0 on core 31...Done.
Initializing Device 0 on core 32...Done.
Initializing Device 0 on core 33...Done.
Initializing Device 0 on core 34...Done.
Initializing Device 0 on core 35...Done.


--------------------------------------------------------------------------
- Using acceleration for lj/charmm/coul/long:
-  with 36 proc(s) per device.
-  Horizontal vector operations: ENABLED
-  Shared memory system: No
--------------------------------------------------------------------------
Device 0: Tesla V100-SXM2-16GB, 80 CUs, 4.8/16 GB, 1.5 GHZ (Mixed Precision)
--------------------------------------------------------------------------

Initializing Device and compiling on process 0...Done.
Initializing Device 0 on core 0...Done.
Initializing Device 0 on core 1...Done.
Initializing Device 0 on core 2...Done.
Initializing Device 0 on core 3...Done.
Initializing Device 0 on core 4...Done.
Initializing Device 0 on core 5...Done.
Initializing Device 0 on core 6...Done.
Initializing Device 0 on core 7...Done.
Initializing Device 0 on core 8...Done.
Initializing Device 0 on core 9...Done.
Initializing Device 0 on core 10...Done.
Initializing Device 0 on core 11...Done.
Initializing Device 0 on core 12...Done.
Initializing Device 0 on core 13...Done.
Initializing Device 0 on core 14...Done.
Initializing Device 0 on core 15...Done.
Initializing Device 0 on core 16...Done.
Initializing Device 0 on core 17...Done.
Initializing Device 0 on core 18...Done.
Initializing Device 0 on core 19...Done.
Initializing Device 0 on core 20...Done.
Initializing Device 0 on core 21...Done.
Initializing Device 0 on core 22...Done.
Initializing Device 0 on core 23...Done.
Initializing Device 0 on core 24...Done.
Initializing Device 0 on core 25...Done.
Initializing Device 0 on core 26...Done.
Initializing Device 0 on core 27...Done.
Initializing Device 0 on core 28...Done.
Initializing Device 0 on core 29...Done.
Initializing Device 0 on core 30...Done.
Initializing Device 0 on core 31...Done.
Initializing Device 0 on core 32...Done.
Initializing Device 0 on core 33...Done.
Initializing Device 0 on core 34...Done.
Initializing Device 0 on core 35...Done.

  generated 2278 of 2278 mixed pair_coeff terms from arithmetic mixing rule
Setting up Verlet run ...
  Unit style    : real
  Current step  : 0
  Time step     : 2
Per MPI rank memory allocation (min/avg/max) = 75.63 | 76.01 | 76.38 Mbytes
---------------- Step        0 ----- CPU =      0.0000 (sec) ----------------
TotEng   =   -684607.4720 KinEng   =    579010.4447 Temp     =       299.0277 
PotEng   =  -1263617.9167 E_bond   =     68525.8383 E_angle  =    294877.1036 
E_dihed  =    140718.2355 E_impro  =      5764.8128 E_vdwl   =    -62312.3570 
E_coul   =   5503140.8793 E_long   =  -7214332.4293 Press    =      -148.7819 
Volume   =   8315865.9045 
---------------- Step       50 ----- CPU =      2.9466 (sec) ----------------
TotEng   =   -683885.4280 KinEng   =    580537.3304 Temp     =       299.8163 
PotEng   =  -1264422.7584 E_bond   =     66738.5315 E_angle  =    292590.9524 
E_dihed  =    141472.6697 E_impro  =      6132.6085 E_vdwl   =    -53808.7616 
E_coul   =   5496968.3503 E_long   =  -7214517.1092 Press    =       238.5952 
Volume   =   8316859.4021 
---------------- Step      100 ----- CPU =      6.0092 (sec) ----------------
TotEng   =   -682807.4900 KinEng   =    582947.8242 Temp     =       301.0611 
PotEng   =  -1265755.3142 E_bond   =     69340.3929 E_angle  =    291119.6204 
E_dihed  =    140358.5974 E_impro  =      5850.7791 E_vdwl   =    -51258.7428 
E_coul   =   5493199.4599 E_long   =  -7214365.4210 Press    =        10.9336 
Volume   =   8319641.0056 
Loop time of 6.00927 on 36 procs for 100 steps with 864000 atoms

Performance: 2.876 ns/day, 8.346 hours/ns, 16.641 timesteps/s
95.8% CPU use with 36 MPI tasks x 1 OpenMP threads

MPI task timing breakdown:
Section |  min time  |  avg time  |  max time  |%varavg|  %CPU | %total
-----------------------------------------------------------------------
Pair    | 1.6466     | 1.7419     | 1.8233     |   3.1 |  99.0 | 28.99
Bond    | 0.79174    | 0.82008    | 0.85723    |   2.0 |  99.5 | 13.65
Kspace  | 1.5261     | 1.5636     | 1.5989     |   1.6 |  93.0 | 26.02
Neigh   | 0.19424    | 0.19692    | 0.19937    |   0.3 |  92.1 |  3.28
Comm    | 0.28405    | 0.31139    | 0.33572    |   3.6 |  90.4 |  5.18
Output  | 0.00036284 | 0.00037581 | 0.00043471 |   0.0 | 100.0 |  0.01
Modify  | 1.1693     | 1.2782     | 1.3865     |   5.2 |  94.4 | 21.27
Other   |            | 0.09685    |            |       |       |  1.61

Nlocal:          24000 ave       24061 max       23926 min
Histogram: 9 0 0 9 0 0 0 0 9 9
Nghost:        40696.5 ave       40811 max       40557 min
Histogram: 9 0 0 0 9 0 0 9 0 9
Neighs:              0 ave           0 max           0 min
Histogram: 36 0 0 0 0 0 0 0 0 0

Total # of neighbors = 0
Ave neighs/atom = 0
Ave special neighs/atom = 7.431875
Neighbor list builds = 11
Dangerous builds = 0


---------------------------------------------------------------------
      Device Time Info (average): 
---------------------------------------------------------------------
Data Transfer:   0.0151 s.
Neighbor copy:   0.1345 s.
Neighbor build:  0.4575 s.
Force calc:      1.3777 s.
Device Overhead: 0.3773 s.
Average split:   1.0000.
Lanes / atom:    8.
Vector width:    32.
Max Mem / Proc:  116.14 MB.
CPU Neighbor:    0.0238 s.
CPU Cast/Pack:   0.0960 s.
CPU Driver_Time: 0.0026 s.
CPU Idle_Time:   0.4489 s.
---------------------------------------------------------------------



---------------------------------------------------------------------
    Device Time Info (average) for kspace: 
---------------------------------------------------------------------
Data Out:        0.0086 s.
Data In:         0.0169 s.
Kernel (map):    0.7828 s.
Kernel (rho):    0.0150 s.
Force interp:    1.0136 s.
Total rho:       0.8064 s.
Total interp:    1.0306 s.
Force copy:      0.0108 s.
Total:           1.8478 s.
CPU Poisson:     0.7201 s.
CPU Data Cast:   0.0123 s.
CPU Idle Time:   0.9043 s.
Max Mem / Proc:  6.01 MB.
---------------------------------------------------------------------

Total wall time: 0:00:29
Intel(R) VTune(TM) Profiler 2022.2.0 collection completed successfully. Use the "aps --report /home/ubuntu/lammps/bench/aps_result_20220420" command to generate textual and HTML reports for the profiling session.
