LAMMPS (7 Jan 2022)
  using 1 OpenMP thread(s) per MPI task
Reading data file ...
  orthogonal box = (-27.5 -38.5 -36.3646) to (27.5 38.5 36.3615)
  3 by 4 by 4 MPI processor grid
  reading atoms ...
  32000 atoms
  reading velocities ...
  32000 velocities
  scanning bonds ...
  4 = max bonds/atom
  scanning angles ...
  8 = max angles/atom
  scanning dihedrals ...
  18 = max dihedrals/atom
  scanning impropers ...
  2 = max impropers/atom
  reading bonds ...
  27723 bonds
  reading angles ...
  40467 angles
  reading dihedrals ...
  56829 dihedrals
  reading impropers ...
  1034 impropers
Finding 1-2 1-3 1-4 neighbors ...
  special bond factors lj:    0        0        0       
  special bond factors coul:  0        0        0       
     4 = max # of 1-2 neighbors
    12 = max # of 1-3 neighbors
    24 = max # of 1-4 neighbors
    26 = max # of special neighbors
  special bonds CPU = 0.007 seconds
  read_data CPU = 0.393 seconds
Replicating atoms ...
  orthogonal box = (-27.5 -38.5 -36.3646) to (192.5 269.5 254.5398)
  3 by 4 by 4 MPI processor grid
  2048000 atoms
  1774272 bonds
  2589888 angles
  3637056 dihedrals
  66176 impropers
Finding 1-2 1-3 1-4 neighbors ...
  special bond factors lj:    0        0        0       
  special bond factors coul:  0        0        0       
     4 = max # of 1-2 neighbors
    12 = max # of 1-3 neighbors
    24 = max # of 1-4 neighbors
    26 = max # of special neighbors
  special bonds CPU = 0.097 seconds
  replicate CPU = 0.218 seconds
Finding SHAKE clusters ...
  103488 = # of size 2 clusters
  232512 = # of size 3 clusters
   47808 = # of size 4 clusters
  270912 = # of frozen angles
  find clusters CPU = 0.043 seconds

CITE-CITE-CITE-CITE-CITE-CITE-CITE-CITE-CITE-CITE-CITE-CITE-CITE

Your simulation uses code contributions which should be cited:
- GPU package (short-range, long-range and three-body potentials):
The log file lists these citations in BibTeX format.

CITE-CITE-CITE-CITE-CITE-CITE-CITE-CITE-CITE-CITE-CITE-CITE-CITE

PPPM initialization ...
  using 12-bit tables for long-range coulomb (../kspace.cpp:340)
  G vector (1/distance) = 0.32764763
  grid = 270 360 360
  stencil order = 5
  estimated absolute RMS force accuracy = 0.0003737576
  estimated relative force accuracy = 1.1255599e-06
  using single precision MKL FFT
  3d grid and FFT values/proc = 912673 777600

--------------------------------------------------------------------------
- Using acceleration for pppm:
-  with 24 proc(s) per device.
-  Horizontal vector operations: ENABLED
-  Shared memory system: No
--------------------------------------------------------------------------
Device 0: Tesla V100-SXM2-16GB, 80 CUs, 8.7/16 GB, 1.5 GHZ (Mixed Precision)
Device 1: Tesla V100-SXM2-16GB, 80 CUs, 1.5 GHZ (Mixed Precision)
--------------------------------------------------------------------------

Initializing Device and compiling on process 0...Done.
Initializing Devices 0-1 on core 0...Done.
Initializing Devices 0-1 on core 1...Done.
Initializing Devices 0-1 on core 2...Done.
Initializing Devices 0-1 on core 3...Done.
Initializing Devices 0-1 on core 4...Done.
Initializing Devices 0-1 on core 5...Done.
Initializing Devices 0-1 on core 6...Done.
Initializing Devices 0-1 on core 7...Done.
Initializing Devices 0-1 on core 8...Done.
Initializing Devices 0-1 on core 9...Done.
Initializing Devices 0-1 on core 10...Done.
Initializing Devices 0-1 on core 11...Done.
Initializing Devices 0-1 on core 12...Done.
Initializing Devices 0-1 on core 13...Done.
Initializing Devices 0-1 on core 14...Done.
Initializing Devices 0-1 on core 15...Done.
Initializing Devices 0-1 on core 16...Done.
Initializing Devices 0-1 on core 17...Done.
Initializing Devices 0-1 on core 18...Done.
Initializing Devices 0-1 on core 19...Done.
Initializing Devices 0-1 on core 20...Done.
Initializing Devices 0-1 on core 21...Done.
Initializing Devices 0-1 on core 22...Done.
Initializing Devices 0-1 on core 23...Done.


--------------------------------------------------------------------------
- Using acceleration for lj/charmm/coul/long:
-  with 24 proc(s) per device.
-  Horizontal vector operations: ENABLED
-  Shared memory system: No
--------------------------------------------------------------------------
Device 0: Tesla V100-SXM2-16GB, 80 CUs, 5.1/16 GB, 1.5 GHZ (Mixed Precision)
Device 1: Tesla V100-SXM2-16GB, 80 CUs, 1.5 GHZ (Mixed Precision)
--------------------------------------------------------------------------

Initializing Device and compiling on process 0...Done.
Initializing Devices 0-1 on core 0...Done.
Initializing Devices 0-1 on core 1...Done.
Initializing Devices 0-1 on core 2...Done.
Initializing Devices 0-1 on core 3...Done.
Initializing Devices 0-1 on core 4...Done.
Initializing Devices 0-1 on core 5...Done.
Initializing Devices 0-1 on core 6...Done.
Initializing Devices 0-1 on core 7...Done.
Initializing Devices 0-1 on core 8...Done.
Initializing Devices 0-1 on core 9...Done.
Initializing Devices 0-1 on core 10...Done.
Initializing Devices 0-1 on core 11...Done.
Initializing Devices 0-1 on core 12...Done.
Initializing Devices 0-1 on core 13...Done.
Initializing Devices 0-1 on core 14...Done.
Initializing Devices 0-1 on core 15...Done.
Initializing Devices 0-1 on core 16...Done.
Initializing Devices 0-1 on core 17...Done.
Initializing Devices 0-1 on core 18...Done.
Initializing Devices 0-1 on core 19...Done.
Initializing Devices 0-1 on core 20...Done.
Initializing Devices 0-1 on core 21...Done.
Initializing Devices 0-1 on core 22...Done.
Initializing Devices 0-1 on core 23...Done.

  generated 2278 of 2278 mixed pair_coeff terms from arithmetic mixing rule
Setting up Verlet run ...
  Unit style    : real
  Current step  : 0
  Time step     : 2
Per MPI rank memory allocation (min/avg/max) = 198.4 | 200.2 | 201.9 Mbytes
---------------- Step        0 ----- CPU =      0.0000 (sec) ----------------
TotEng   =  -1622982.4590 KinEng   =   1372469.2022 Temp     =       299.0274 
PotEng   =  -2995451.6612 E_bond   =    162431.6167 E_angle  =    698967.9493 
E_dihed  =    333554.3360 E_impro  =     13664.7415 E_vdwl   =   -147703.3196 
E_coul   =  18695669.3455 E_long   = -22752036.3306 Press    =      -152.9626 
Volume   =  19711682.1440 
---------------- Step       50 ----- CPU =     30.4400 (sec) ----------------
TotEng   =  -1621304.7817 KinEng   =   1376085.2234 Temp     =       299.8153 
PotEng   =  -2997390.0051 E_bond   =    158186.8884 E_angle  =    693554.3422 
E_dihed  =    335327.0530 E_impro  =     14537.2163 E_vdwl   =   -127520.4810 
E_coul   =  18681566.7175 E_long   = -22753041.7415 Press    =       234.7851 
Volume   =  19713991.3111 
---------------- Step      100 ----- CPU =     60.3270 (sec) ----------------
TotEng   =  -1618408.8067 KinEng   =   1381880.6324 Temp     =       301.0780 
PotEng   =  -3000289.4391 E_bond   =    164344.7031 E_angle  =    690028.1585 
E_dihed  =    332709.1052 E_impro  =     13874.3620 E_vdwl   =   -121622.0062 
E_coul   =  18673021.0218 E_long   = -22752644.7835 Press    =        12.1849 
Volume   =  19720481.8522 
Loop time of 60.3271 on 48 procs for 100 steps with 2048000 atoms

Performance: 0.286 ns/day, 83.788 hours/ns, 1.658 timesteps/s
92.4% CPU use with 48 MPI tasks x 1 OpenMP threads

MPI task timing breakdown:
Section |  min time  |  avg time  |  max time  |%varavg| %total
---------------------------------------------------------------
Pair    | 5.4266     | 5.6472     | 5.7912     |   3.1 |  9.36
Bond    | 1.541      | 1.6039     | 1.6958     |   3.2 |  2.66
Kspace  | 35.63      | 35.876     | 36.137     |   1.9 | 59.47
Neigh   | 0.32964    | 0.33385    | 0.33693    |   0.2 |  0.55
Comm    | 1.4381     | 2.0931     | 2.6222     |  25.5 |  3.47
Output  | 0.00059386 | 0.00060697 | 0.00067894 |   0.0 |  0.00
Modify  | 11.633     | 12.492     | 13.45      |  19.4 | 20.71
Other   |            | 2.28       |            |       |  3.78

Nlocal:        42666.7 ave       42689 max       42636 min
Histogram: 16 0 0 0 0 0 0 16 0 16
Nghost:        55813.7 ave       55831 max       55804 min
Histogram: 32 0 0 0 0 0 0 0 0 16
Neighs:              0 ave           0 max           0 min
Histogram: 48 0 0 0 0 0 0 0 0 0

Total # of neighbors = 0
Ave neighs/atom = 0
Ave special neighs/atom = 7.431875
Neighbor list builds = 11
Dangerous builds = 0


---------------------------------------------------------------------
      Device Time Info (average): 
---------------------------------------------------------------------
Data Transfer:   0.0193 s.
Neighbor copy:   0.2812 s.
Neighbor build:  0.8906 s.
Force calc:      1.3291 s.
Device Overhead: 0.2559 s.
Average split:   1.0000.
Lanes / atom:    8.
Vector width:    32.
Max Mem / Proc:  198.74 MB.
CPU Neighbor:    0.0965 s.
CPU Cast/Pack:   0.1838 s.
CPU Driver_Time: 0.0035 s.
CPU Idle_Time:   0.0024 s.
---------------------------------------------------------------------



---------------------------------------------------------------------
    Device Time Info (average) for kspace: 
---------------------------------------------------------------------
Data Out:        0.0635 s.
Data In:         5.3920 s.
Kernel (map):    0.6322 s.
Kernel (rho):    0.0453 s.
Force interp:    0.0497 s.
Total rho:       0.7409 s.
Total interp:    5.4417 s.
Force copy:      0.0348 s.
Total:           6.2174 s.
CPU Poisson:     35.1401 s.
CPU Data Cast:   0.0250 s.
CPU Idle Time:   1.0206 s.
Max Mem / Proc:  147.51 MB.
---------------------------------------------------------------------

Total wall time: 0:02:06
Intel(R) VTune(TM) Profiler 2022.2.0 collection completed successfully. Use the "aps --report /home/ubuntu/lammps/bench/aps_result_20220531" command to generate textual and HTML reports for the profiling session.
