LAMMPS (7 Jan 2022)
  using 1 OpenMP thread(s) per MPI task
New timer settings: style=full  mode=nosync  timeout=off
Reading data file ...
  orthogonal box = (-27.5 -38.5 -36.3646) to (27.5 38.5 36.3615)
  2 by 3 by 3 MPI processor grid
  reading atoms ...
  32000 atoms
  reading velocities ...
  32000 velocities
  scanning bonds ...
  4 = max bonds/atom
  scanning angles ...
  8 = max angles/atom
  scanning dihedrals ...
  18 = max dihedrals/atom
  scanning impropers ...
  2 = max impropers/atom
  reading bonds ...
  27723 bonds
  reading angles ...
  40467 angles
  reading dihedrals ...
  56829 dihedrals
  reading impropers ...
  1034 impropers
Finding 1-2 1-3 1-4 neighbors ...
  special bond factors lj:    0        0        0       
  special bond factors coul:  0        0        0       
     4 = max # of 1-2 neighbors
    12 = max # of 1-3 neighbors
    24 = max # of 1-4 neighbors
    26 = max # of special neighbors
  special bonds CPU = 0.006 seconds
  read_data CPU = 0.294 seconds
Finding SHAKE clusters ...
    1617 = # of size 2 clusters
    3633 = # of size 3 clusters
     747 = # of size 4 clusters
    4233 = # of frozen angles
  find clusters CPU = 0.004 seconds

CITE-CITE-CITE-CITE-CITE-CITE-CITE-CITE-CITE-CITE-CITE-CITE-CITE

Your simulation uses code contributions which should be cited:
- GPU package (short-range, long-range and three-body potentials):
The log file lists these citations in BibTeX format.

CITE-CITE-CITE-CITE-CITE-CITE-CITE-CITE-CITE-CITE-CITE-CITE-CITE

PPPM initialization ...
  using 12-bit tables for long-range coulomb (../kspace.cpp:340)
  G vector (1/distance) = 0.24883488
  grid = 25 32 32
  stencil order = 5
  estimated absolute RMS force accuracy = 0.035547797
  estimated relative force accuracy = 0.00010705113
  using single precision MKL FFT
  3d grid and FFT values/proc = 5202 1600

--------------------------------------------------------------------------
- Using acceleration for pppm:
-  with 3 proc(s) per device.
-  Horizontal vector operations: ENABLED
-  Shared memory system: No
--------------------------------------------------------------------------
Device 0: Tesla V100-SXM2-16GB, 80 CUs, 15/16 GB, 1.5 GHZ (Mixed Precision)
Device 1: Tesla V100-SXM2-16GB, 80 CUs, 1.5 GHZ (Mixed Precision)
Device 2: Tesla V100-SXM2-16GB, 80 CUs, 1.5 GHZ (Mixed Precision)
Device 3: Tesla V100-SXM2-16GB, 80 CUs, 1.5 GHZ (Mixed Precision)
Device 4: Tesla V100-SXM2-16GB, 80 CUs, 1.5 GHZ (Mixed Precision)
Device 5: Tesla V100-SXM2-16GB, 80 CUs, 1.5 GHZ (Mixed Precision)
--------------------------------------------------------------------------

Initializing Device and compiling on process 0...Done.
Initializing Devices 0-5 on core 0...Done.
Initializing Devices 0-5 on core 1...Done.
Initializing Devices 0-5 on core 2...Done.


--------------------------------------------------------------------------
- Using acceleration for lj/charmm/coul/long:
-  with 3 proc(s) per device.
-  Horizontal vector operations: ENABLED
-  Shared memory system: No
--------------------------------------------------------------------------
Device 0: Tesla V100-SXM2-16GB, 80 CUs, 15/16 GB, 1.5 GHZ (Mixed Precision)
Device 1: Tesla V100-SXM2-16GB, 80 CUs, 1.5 GHZ (Mixed Precision)
Device 2: Tesla V100-SXM2-16GB, 80 CUs, 1.5 GHZ (Mixed Precision)
Device 3: Tesla V100-SXM2-16GB, 80 CUs, 1.5 GHZ (Mixed Precision)
Device 4: Tesla V100-SXM2-16GB, 80 CUs, 1.5 GHZ (Mixed Precision)
Device 5: Tesla V100-SXM2-16GB, 80 CUs, 1.5 GHZ (Mixed Precision)
--------------------------------------------------------------------------

Initializing Device and compiling on process 0...Done.
Initializing Devices 0-5 on core 0...Done.
Initializing Devices 0-5 on core 1...Done.
Initializing Devices 0-5 on core 2...Done.

  generated 2278 of 2278 mixed pair_coeff terms from arithmetic mixing rule
Setting up Verlet run ...
  Unit style    : real
  Current step  : 0
  Time step     : 2
Per MPI rank memory allocation (min/avg/max) = 18.27 | 18.41 | 18.7 Mbytes
---------------- Step        0 ----- CPU =      0.0000 (sec) ----------------
TotEng   =    -25356.2687 KinEng   =     21444.8313 Temp     =       299.0397 
PotEng   =    -46801.1000 E_bond   =      2537.9940 E_angle  =     10921.3742 
E_dihed  =      5211.7865 E_impro  =       213.5116 E_vdwl   =     -2307.8635 
E_coul   =    207025.8394 E_long   =   -270403.7422 Press    =      -149.3321 
Volume   =    307995.0335 
---------------- Step       50 ----- CPU =      0.1878 (sec) ----------------
TotEng   =    -25330.0802 KinEng   =     21500.9989 Temp     =       299.8229 
PotEng   =    -46831.0791 E_bond   =      2471.7037 E_angle  =     10836.5108 
E_dihed  =      5239.6320 E_impro  =       227.1218 E_vdwl   =     -1993.2893 
E_coul   =    206797.6432 E_long   =   -270410.4013 Press    =       237.6578 
Volume   =    308031.6776 
---------------- Step      100 ----- CPU =      0.3716 (sec) ----------------
TotEng   =    -25290.7928 KinEng   =     21591.9062 Temp     =       301.0906 
PotEng   =    -46882.6990 E_bond   =      2567.9806 E_angle  =     10781.9582 
E_dihed  =      5198.7496 E_impro  =       216.7864 E_vdwl   =     -1902.6680 
E_coul   =    206659.4761 E_long   =   -270404.9819 Press    =         6.7257 
Volume   =    308134.2324 
---------------- Step      150 ----- CPU =      0.5517 (sec) ----------------
TotEng   =    -25258.1214 KinEng   =     21529.6565 Temp     =       300.2225 
PotEng   =    -46787.7778 E_bond   =      2556.3453 E_angle  =     10852.7811 
E_dihed  =      5265.2329 E_impro  =       203.0688 E_vdwl   =     -2066.1569 
E_coul   =    206797.4368 E_long   =   -270396.4859 Press    =       251.4659 
Volume   =    308515.2434 
---------------- Step      200 ----- CPU =      0.7336 (sec) ----------------
TotEng   =    -25078.9258 KinEng   =     21571.1898 Temp     =       300.8017 
PotEng   =    -46650.1156 E_bond   =      2488.6937 E_angle  =     11073.4379 
E_dihed  =      5221.7531 E_impro  =       232.8567 E_vdwl   =     -2167.6302 
E_coul   =    206902.8962 E_long   =   -270402.1231 Press    =        20.7709 
Volume   =    308997.5450 
---------------- Step      250 ----- CPU =      0.9297 (sec) ----------------
TotEng   =    -24944.3467 KinEng   =     21547.9212 Temp     =       300.4772 
PotEng   =    -46492.2679 E_bond   =      2542.5567 E_angle  =     11105.4263 
E_dihed  =      5239.6482 E_impro  =       212.3500 E_vdwl   =     -2168.8918 
E_coul   =    206988.8603 E_long   =   -270412.2176 Press    =      -170.0717 
Volume   =    309388.0981 
---------------- Step      300 ----- CPU =      1.1137 (sec) ----------------
TotEng   =    -25000.7777 KinEng   =     21496.6407 Temp     =       299.7621 
PotEng   =    -46497.4184 E_bond   =      2558.1242 E_angle  =     10923.1610 
E_dihed  =      5211.1807 E_impro  =       222.2909 E_vdwl   =     -2220.7780 
E_coul   =    207195.2780 E_long   =   -270386.6751 Press    =      -373.3436 
Volume   =    309663.2845 
---------------- Step      350 ----- CPU =      1.2966 (sec) ----------------
TotEng   =    -25132.1612 KinEng   =     21468.5869 Temp     =       299.3709 
PotEng   =    -46600.7481 E_bond   =      2580.1850 E_angle  =     10952.0464 
E_dihed  =      5250.3999 E_impro  =       212.6202 E_vdwl   =     -2162.9640 
E_coul   =    206967.7545 E_long   =   -270400.7901 Press    =      -332.2962 
Volume   =    309799.5061 
---------------- Step      400 ----- CPU =      1.4765 (sec) ----------------
TotEng   =    -25213.2457 KinEng   =     21455.1193 Temp     =       299.1831 
PotEng   =    -46668.3649 E_bond   =      2525.0360 E_angle  =     10966.4291 
E_dihed  =      5206.6743 E_impro  =       213.2486 E_vdwl   =     -2197.6248 
E_coul   =    207031.3617 E_long   =   -270413.4897 Press    =       172.4783 
Volume   =    309816.2989 
---------------- Step      450 ----- CPU =      1.6617 (sec) ----------------
TotEng   =    -25177.3580 KinEng   =     21480.5124 Temp     =       299.5372 
PotEng   =    -46657.8703 E_bond   =      2502.5410 E_angle  =     10957.5593 
E_dihed  =      5239.8267 E_impro  =       225.2687 E_vdwl   =     -2250.5394 
E_coul   =    207058.4651 E_long   =   -270390.9917 Press    =       157.2753 
Volume   =    309772.6177 
---------------- Step      500 ----- CPU =      1.8397 (sec) ----------------
TotEng   =    -24997.8913 KinEng   =     21585.6386 Temp     =       301.0032 
PotEng   =    -46583.5298 E_bond   =      2566.9268 E_angle  =     10942.4993 
E_dihed  =      5256.3962 E_impro  =       218.3314 E_vdwl   =     -2100.7072 
E_coul   =    206936.7848 E_long   =   -270403.7610 Press    =      -189.9467 
Volume   =    309755.6053 
---------------- Step      550 ----- CPU =      2.0224 (sec) ----------------
TotEng   =    -24931.4880 KinEng   =     21584.0819 Temp     =       300.9815 
PotEng   =    -46515.5699 E_bond   =      2508.7788 E_angle  =     10925.8964 
E_dihed  =      5191.2929 E_impro  =       227.0375 E_vdwl   =     -2045.8590 
E_coul   =    207063.1204 E_long   =   -270385.8368 Press    =       433.0884 
Volume   =    309728.6906 
---------------- Step      600 ----- CPU =      2.2045 (sec) ----------------
TotEng   =    -24969.0040 KinEng   =     21646.2976 Temp     =       301.8490 
PotEng   =    -46615.3016 E_bond   =      2570.4391 E_angle  =     10901.4029 
E_dihed  =      5237.9827 E_impro  =       221.5170 E_vdwl   =     -2219.1163 
E_coul   =    207076.3931 E_long   =   -270403.9202 Press    =        71.9333 
Volume   =    309878.7124 
Loop time of 2.20461 on 18 procs for 600 steps with 32000 atoms

Performance: 47.029 ns/day, 0.510 hours/ns, 272.156 timesteps/s
95.1% CPU use with 18 MPI tasks x 1 OpenMP threads

MPI task timing breakdown:
Section |  min time  |  avg time  |  max time  |%varavg|  %CPU | %total
-----------------------------------------------------------------------
Pair    | 0.23282    | 0.2694     | 0.32147    |   5.0 |  95.5 | 12.22
Bond    | 0.20928    | 0.37387    | 0.65735    |  26.0 |  96.0 | 16.96
Kspace  | 0.51737    | 0.79277    | 0.94312    |  17.6 |  94.8 | 35.96
Neigh   | 0.042553   | 0.04362    | 0.04455    |   0.3 |  94.6 |  1.98
Comm    | 0.20331    | 0.21334    | 0.24526    |   3.2 |  94.5 |  9.68
Output  | 0.00086421 | 0.00089225 | 0.001162   |   0.0 | 100.0 |  0.04
Modify  | 0.39217    | 0.47928    | 0.52996    |   5.5 |  94.8 | 21.74
Other   |            | 0.03144    |            |       |       |  1.43

Nlocal:        1777.78 ave        1840 max        1722 min
Histogram: 2 3 1 1 1 4 2 1 1 2
Nghost:        11014.5 ave       11167 max       10848 min
Histogram: 2 1 1 3 2 3 0 0 3 3
Neighs:              0 ave           0 max           0 min
Histogram: 18 0 0 0 0 0 0 0 0 0

Total # of neighbors = 0
Ave neighs/atom = 0
Ave special neighs/atom = 7.431875
Neighbor list builds = 66
Dangerous builds = 0


---------------------------------------------------------------------
      Device Time Info (average): 
---------------------------------------------------------------------
Data Transfer:   0.0154 s.
Neighbor copy:   0.0307 s.
Neighbor build:  0.1156 s.
Force calc:      0.3596 s.
Device Overhead: 0.1827 s.
Average split:   1.0000.
Lanes / atom:    8.
Vector width:    32.
Max Mem / Proc:  9.01 MB.
CPU Neighbor:    0.0227 s.
CPU Cast/Pack:   0.0522 s.
CPU Driver_Time: 0.0105 s.
CPU Idle_Time:   0.0018 s.
---------------------------------------------------------------------



---------------------------------------------------------------------
    Device Time Info (average) for kspace: 
---------------------------------------------------------------------
Data Out:        0.0082 s.
Data In:         0.0334 s.
Kernel (map):    0.2165 s.
Kernel (rho):    0.0672 s.
Force interp:    0.1096 s.
Total rho:       0.2919 s.
Total interp:    0.1430 s.
Force copy:      0.0099 s.
Total:           0.4448 s.
CPU Poisson:     0.5689 s.
CPU Data Cast:   0.0042 s.
CPU Idle Time:   0.1999 s.
Max Mem / Proc:  0.65 MB.
---------------------------------------------------------------------

Total wall time: 0:00:12
Intel(R) VTune(TM) Profiler 2022.2.0 collection completed successfully. Use the "aps --report /home/ubuntu/lammps/bench/aps_result_20220420" command to generate textual and HTML reports for the profiling session.
