LAMMPS (7 Jan 2022)
  using 1 OpenMP thread(s) per MPI task
Reading data file ...
  orthogonal box = (-27.5 -38.5 -36.3646) to (27.5 38.5 36.3615)
  3 by 4 by 3 MPI processor grid
  reading atoms ...
  32000 atoms
  reading velocities ...
  32000 velocities
  scanning bonds ...
  4 = max bonds/atom
  scanning angles ...
  8 = max angles/atom
  scanning dihedrals ...
  18 = max dihedrals/atom
  scanning impropers ...
  2 = max impropers/atom
  reading bonds ...
  27723 bonds
  reading angles ...
  40467 angles
  reading dihedrals ...
  56829 dihedrals
  reading impropers ...
  1034 impropers
Finding 1-2 1-3 1-4 neighbors ...
  special bond factors lj:    0        0        0       
  special bond factors coul:  0        0        0       
     4 = max # of 1-2 neighbors
    12 = max # of 1-3 neighbors
    24 = max # of 1-4 neighbors
    26 = max # of special neighbors
  special bonds CPU = 0.007 seconds
  read_data CPU = 0.418 seconds
Replicating atoms ...
  orthogonal box = (-27.5 -38.5 -36.3646) to (137.5 192.5 181.8137)
  3 by 4 by 3 MPI processor grid
  864000 atoms
  748521 bonds
  1092609 angles
  1534383 dihedrals
  27918 impropers
Finding 1-2 1-3 1-4 neighbors ...
  special bond factors lj:    0        0        0       
  special bond factors coul:  0        0        0       
     4 = max # of 1-2 neighbors
    12 = max # of 1-3 neighbors
    24 = max # of 1-4 neighbors
    26 = max # of special neighbors
  special bonds CPU = 0.055 seconds
  replicate CPU = 0.120 seconds
Finding SHAKE clusters ...
   43659 = # of size 2 clusters
   98091 = # of size 3 clusters
   20169 = # of size 4 clusters
  114291 = # of frozen angles
  find clusters CPU = 0.024 seconds

CITE-CITE-CITE-CITE-CITE-CITE-CITE-CITE-CITE-CITE-CITE-CITE-CITE

Your simulation uses code contributions which should be cited:
- GPU package (short-range, long-range and three-body potentials):
The log file lists these citations in BibTeX format.

CITE-CITE-CITE-CITE-CITE-CITE-CITE-CITE-CITE-CITE-CITE-CITE-CITE

PPPM initialization ...
  using 12-bit tables for long-range coulomb (../kspace.cpp:340)
  G vector (1/distance) = 0.28871234
  grid = 120 160 150
  stencil order = 5
  estimated absolute RMS force accuracy = 0.0041674947
  estimated relative force accuracy = 1.2550286e-05
  using single precision MKL FFT
  3d grid and FFT values/proc = 125913 96000

--------------------------------------------------------------------------
- Using acceleration for pppm:
-  with 9 proc(s) per device.
-  Horizontal vector operations: ENABLED
-  Shared memory system: No
--------------------------------------------------------------------------
Device 0: Tesla V100-SXM2-16GB, 80 CUs, 13/16 GB, 1.5 GHZ (Mixed Precision)
Device 1: Tesla V100-SXM2-16GB, 80 CUs, 1.5 GHZ (Mixed Precision)
Device 2: Tesla V100-SXM2-16GB, 80 CUs, 1.5 GHZ (Mixed Precision)
Device 3: Tesla V100-SXM2-16GB, 80 CUs, 1.5 GHZ (Mixed Precision)
--------------------------------------------------------------------------

Initializing Device and compiling on process 0...Done.
Initializing Devices 0-3 on core 0...Done.
Initializing Devices 0-3 on core 1...Done.
Initializing Devices 0-3 on core 2...Done.
Initializing Devices 0-3 on core 3...Done.
Initializing Devices 0-3 on core 4...Done.
Initializing Devices 0-3 on core 5...Done.
Initializing Devices 0-3 on core 6...Done.
Initializing Devices 0-3 on core 7...Done.
Initializing Devices 0-3 on core 8...Done.


--------------------------------------------------------------------------
- Using acceleration for lj/charmm/coul/long:
-  with 9 proc(s) per device.
-  Horizontal vector operations: ENABLED
-  Shared memory system: No
--------------------------------------------------------------------------
Device 0: Tesla V100-SXM2-16GB, 80 CUs, 13/16 GB, 1.5 GHZ (Mixed Precision)
Device 1: Tesla V100-SXM2-16GB, 80 CUs, 1.5 GHZ (Mixed Precision)
Device 2: Tesla V100-SXM2-16GB, 80 CUs, 1.5 GHZ (Mixed Precision)
Device 3: Tesla V100-SXM2-16GB, 80 CUs, 1.5 GHZ (Mixed Precision)
--------------------------------------------------------------------------

Initializing Device and compiling on process 0...Done.
Initializing Devices 0-3 on core 0...Done.
Initializing Devices 0-3 on core 1...Done.
Initializing Devices 0-3 on core 2...Done.
Initializing Devices 0-3 on core 3...Done.
Initializing Devices 0-3 on core 4...Done.
Initializing Devices 0-3 on core 5...Done.
Initializing Devices 0-3 on core 6...Done.
Initializing Devices 0-3 on core 7...Done.
Initializing Devices 0-3 on core 8...Done.

  generated 2278 of 2278 mixed pair_coeff terms from arithmetic mixing rule
Setting up Verlet run ...
  Unit style    : real
  Current step  : 0
  Time step     : 2
Per MPI rank memory allocation (min/avg/max) = 81.81 | 82.25 | 83.46 Mbytes
---------------- Step        0 ----- CPU =      0.0000 (sec) ----------------
TotEng   =   -684685.0275 KinEng   =    579010.4447 Temp     =       299.0277 
PotEng   =  -1263695.4721 E_bond   =     68525.8383 E_angle  =    294877.1036 
E_dihed  =    140718.2355 E_impro  =      5764.8128 E_vdwl   =    -62312.3570 
E_coul   =   6754313.6565 E_long   =  -8465582.7619 Press    =      -152.7190 
Volume   =   8315865.9045 
---------------- Step       50 ----- CPU =      3.1825 (sec) ----------------
TotEng   =   -683977.1374 KinEng   =    580538.5725 Temp     =       299.8169 
PotEng   =  -1264515.7099 E_bond   =     66735.4037 E_angle  =    292592.3652 
E_dihed  =    141466.3534 E_impro  =      6132.7427 E_vdwl   =    -53798.6011 
E_coul   =   6748223.5196 E_long   =  -8465867.4934 Press    =       235.0043 
Volume   =   8316840.2428 
---------------- Step      100 ----- CPU =      6.3764 (sec) ----------------
TotEng   =   -682765.6065 KinEng   =    582926.9721 Temp     =       301.0504 
PotEng   =  -1265692.5785 E_bond   =     69333.0000 E_angle  =    291109.5471 
E_dihed  =    140363.1029 E_impro  =      5853.7504 E_vdwl   =    -51319.2673 
E_coul   =   6744664.7803 E_long   =  -8465697.4918 Press    =        12.2672 
Volume   =   8319577.2466 
Loop time of 6.37651 on 36 procs for 100 steps with 864000 atoms

Performance: 2.710 ns/day, 8.856 hours/ns, 15.683 timesteps/s
95.9% CPU use with 36 MPI tasks x 1 OpenMP threads

MPI task timing breakdown:
Section |  min time  |  avg time  |  max time  |%varavg| %total
---------------------------------------------------------------
Pair    | 0.48311    | 0.55909    | 0.65208    |   5.3 |  8.77
Bond    | 0.80196    | 0.83034    | 0.87422    |   2.1 | 13.02
Kspace  | 1.9743     | 2.0167     | 2.0508     |   1.3 | 31.63
Neigh   | 0.18683    | 0.19062    | 0.19279    |   0.3 |  2.99
Comm    | 0.32412    | 0.42053    | 0.45864    |   6.4 |  6.59
Output  | 0.00039693 | 0.00040543 | 0.00045831 |   0.0 |  0.01
Modify  | 2.0258     | 2.1492     | 2.3916     |   6.5 | 33.71
Other   |            | 0.2096     |            |       |  3.29

Nlocal:          24000 ave       24064 max       23925 min
Histogram: 9 0 0 9 0 0 0 0 9 9
Nghost:        40677.5 ave       40792 max       40534 min
Histogram: 9 0 0 0 9 0 0 9 0 9
Neighs:              0 ave           0 max           0 min
Histogram: 36 0 0 0 0 0 0 0 0 0

Total # of neighbors = 0
Ave neighs/atom = 0
Ave special neighs/atom = 7.431875
Neighbor list builds = 11
Dangerous builds = 0


---------------------------------------------------------------------
      Device Time Info (average): 
---------------------------------------------------------------------
Data Transfer:   0.0131 s.
Neighbor copy:   0.1175 s.
Neighbor build:  0.1400 s.
Force calc:      0.3578 s.
Device Overhead: 0.1017 s.
Average split:   1.0000.
Lanes / atom:    8.
Vector width:    32.
Max Mem / Proc:  116.14 MB.
CPU Neighbor:    0.0383 s.
CPU Cast/Pack:   0.1041 s.
CPU Driver_Time: 0.0039 s.
CPU Idle_Time:   0.0018 s.
---------------------------------------------------------------------



---------------------------------------------------------------------
    Device Time Info (average) for kspace: 
---------------------------------------------------------------------
Data Out:        0.0170 s.
Data In:         0.3350 s.
Kernel (map):    0.1870 s.
Kernel (rho):    0.0198 s.
Force interp:    0.0341 s.
Total rho:       0.2237 s.
Total interp:    0.3691 s.
Force copy:      0.0344 s.
Total:           0.6273 s.
CPU Poisson:     1.8821 s.
CPU Data Cast:   0.0130 s.
CPU Idle Time:   0.1459 s.
Max Mem / Proc:  20.15 MB.
---------------------------------------------------------------------

Total wall time: 0:00:53
Intel(R) VTune(TM) Profiler 2022.2.0 collection completed successfully. Use the "aps --report /home/ubuntu/lammps/bench/aps_result_20220531" command to generate textual and HTML reports for the profiling session.
