LAMMPS (7 Jan 2022)
  using 1 OpenMP thread(s) per MPI task
Reading data file ...
  orthogonal box = (-27.5 -38.5 -36.3646) to (27.5 38.5 36.3615)
  2 by 3 by 2 MPI processor grid
  reading atoms ...
  32000 atoms
  reading velocities ...
  32000 velocities
  scanning bonds ...
  4 = max bonds/atom
  scanning angles ...
  8 = max angles/atom
  scanning dihedrals ...
  18 = max dihedrals/atom
  scanning impropers ...
  2 = max impropers/atom
  reading bonds ...
  27723 bonds
  reading angles ...
  40467 angles
  reading dihedrals ...
  56829 dihedrals
  reading impropers ...
  1034 impropers
Finding 1-2 1-3 1-4 neighbors ...
  special bond factors lj:    0        0        0       
  special bond factors coul:  0        0        0       
     4 = max # of 1-2 neighbors
    12 = max # of 1-3 neighbors
    24 = max # of 1-4 neighbors
    26 = max # of special neighbors
  special bonds CPU = 0.005 seconds
  read_data CPU = 0.320 seconds
Finding SHAKE clusters ...
    1617 = # of size 2 clusters
    3633 = # of size 3 clusters
     747 = # of size 4 clusters
    4233 = # of frozen angles
  find clusters CPU = 0.003 seconds

CITE-CITE-CITE-CITE-CITE-CITE-CITE-CITE-CITE-CITE-CITE-CITE-CITE

Your simulation uses code contributions which should be cited:
- GPU package (short-range, long-range and three-body potentials):
The log file lists these citations in BibTeX format.

CITE-CITE-CITE-CITE-CITE-CITE-CITE-CITE-CITE-CITE-CITE-CITE-CITE

PPPM initialization ...
  using 12-bit tables for long-range coulomb (../kspace.cpp:340)
  G vector (1/distance) = 0.24883488
  grid = 25 32 32
  stencil order = 5
  estimated absolute RMS force accuracy = 0.035547797
  estimated relative force accuracy = 0.00010705113
  using single precision MKL FFT
  3d grid and FFT values/proc = 6426 2400

--------------------------------------------------------------------------
- Using acceleration for pppm:
-  with 3 proc(s) per device.
-  Horizontal vector operations: ENABLED
-  Shared memory system: No
--------------------------------------------------------------------------
Device 0: Tesla V100-SXM2-16GB, 80 CUs, 15/16 GB, 1.5 GHZ (Mixed Precision)
Device 1: Tesla V100-SXM2-16GB, 80 CUs, 1.5 GHZ (Mixed Precision)
Device 2: Tesla V100-SXM2-16GB, 80 CUs, 1.5 GHZ (Mixed Precision)
Device 3: Tesla V100-SXM2-16GB, 80 CUs, 1.5 GHZ (Mixed Precision)
--------------------------------------------------------------------------

Initializing Device and compiling on process 0...Done.
Initializing Devices 0-3 on core 0...Done.
Initializing Devices 0-3 on core 1...Done.
Initializing Devices 0-3 on core 2...Done.


--------------------------------------------------------------------------
- Using acceleration for lj/charmm/coul/long:
-  with 3 proc(s) per device.
-  Horizontal vector operations: ENABLED
-  Shared memory system: No
--------------------------------------------------------------------------
Device 0: Tesla V100-SXM2-16GB, 80 CUs, 15/16 GB, 1.5 GHZ (Mixed Precision)
Device 1: Tesla V100-SXM2-16GB, 80 CUs, 1.5 GHZ (Mixed Precision)
Device 2: Tesla V100-SXM2-16GB, 80 CUs, 1.5 GHZ (Mixed Precision)
Device 3: Tesla V100-SXM2-16GB, 80 CUs, 1.5 GHZ (Mixed Precision)
--------------------------------------------------------------------------

Initializing Device and compiling on process 0...Done.
Initializing Devices 0-3 on core 0...Done.
Initializing Devices 0-3 on core 1...Done.
Initializing Devices 0-3 on core 2...Done.

  generated 2278 of 2278 mixed pair_coeff terms from arithmetic mixing rule
Setting up Verlet run ...
  Unit style    : real
  Current step  : 0
  Time step     : 2
Per MPI rank memory allocation (min/avg/max) = 18.46 | 18.55 | 18.69 Mbytes
---------------- Step        0 ----- CPU =      0.0000 (sec) ----------------
TotEng   =    -25356.2687 KinEng   =     21444.8313 Temp     =       299.0397 
PotEng   =    -46801.1000 E_bond   =      2537.9940 E_angle  =     10921.3742 
E_dihed  =      5211.7865 E_impro  =       213.5116 E_vdwl   =     -2307.8635 
E_coul   =    207025.8394 E_long   =   -270403.7421 Press    =      -149.3321 
Volume   =    307995.0335 
---------------- Step       50 ----- CPU =      0.2076 (sec) ----------------
TotEng   =    -25330.0817 KinEng   =     21500.9995 Temp     =       299.8229 
PotEng   =    -46831.0811 E_bond   =      2471.7037 E_angle  =     10836.5108 
E_dihed  =      5239.6320 E_impro  =       227.1218 E_vdwl   =     -1993.2893 
E_coul   =    206797.6412 E_long   =   -270410.4014 Press    =       237.6564 
Volume   =    308031.6776 
---------------- Step      100 ----- CPU =      0.4153 (sec) ----------------
TotEng   =    -25290.7913 KinEng   =     21591.9045 Temp     =       301.0906 
PotEng   =    -46882.6958 E_bond   =      2567.9807 E_angle  =     10781.9579 
E_dihed  =      5198.7495 E_impro  =       216.7864 E_vdwl   =     -1902.6684 
E_coul   =    206659.4802 E_long   =   -270404.9822 Press    =         6.7240 
Volume   =    308134.2325 
---------------- Step      150 ----- CPU =      0.6149 (sec) ----------------
TotEng   =    -25258.1086 KinEng   =     21529.6677 Temp     =       300.2227 
PotEng   =    -46787.7763 E_bond   =      2556.3450 E_angle  =     10852.7810 
E_dihed  =      5265.2331 E_impro  =       203.0688 E_vdwl   =     -2066.1510 
E_coul   =    206797.4321 E_long   =   -270396.4853 Press    =       251.4799 
Volume   =    308515.2419 
---------------- Step      200 ----- CPU =      0.8201 (sec) ----------------
TotEng   =    -25078.9285 KinEng   =     21571.2106 Temp     =       300.8020 
PotEng   =    -46650.1391 E_bond   =      2488.6949 E_angle  =     11073.4394 
E_dihed  =      5221.7510 E_impro  =       232.8567 E_vdwl   =     -2167.6256 
E_coul   =    206902.8629 E_long   =   -270402.1185 Press    =        20.7509 
Volume   =    308997.5519 
---------------- Step      250 ----- CPU =      1.0321 (sec) ----------------
TotEng   =    -24944.3899 KinEng   =     21547.7138 Temp     =       300.4743 
PotEng   =    -46492.1038 E_bond   =      2542.5549 E_angle  =     11105.4359 
E_dihed  =      5239.6450 E_impro  =       212.3498 E_vdwl   =     -2168.8618 
E_coul   =    206988.9448 E_long   =   -270412.1722 Press    =      -169.9872 
Volume   =    309388.1359 
---------------- Step      300 ----- CPU =      1.2324 (sec) ----------------
TotEng   =    -25000.9227 KinEng   =     21496.5832 Temp     =       299.7613 
PotEng   =    -46497.5060 E_bond   =      2558.0746 E_angle  =     10922.9942 
E_dihed  =      5211.1711 E_impro  =       222.2958 E_vdwl   =     -2221.4675 
E_coul   =    207196.1044 E_long   =   -270386.6786 Press    =      -373.5308 
Volume   =    309663.3010 
---------------- Step      350 ----- CPU =      1.4446 (sec) ----------------
TotEng   =    -25130.5673 KinEng   =     21465.4783 Temp     =       299.3276 
PotEng   =    -46596.0455 E_bond   =      2580.1933 E_angle  =     10952.0455 
E_dihed  =      5250.5395 E_impro  =       212.6544 E_vdwl   =     -2163.9696 
E_coul   =    206973.5839 E_long   =   -270401.0925 Press    =      -330.8750 
Volume   =    309799.1132 
---------------- Step      400 ----- CPU =      1.6523 (sec) ----------------
TotEng   =    -25211.4917 KinEng   =     21435.2064 Temp     =       298.9055 
PotEng   =    -46646.6981 E_bond   =      2525.5174 E_angle  =     10966.1593 
E_dihed  =      5206.6980 E_impro  =       213.0661 E_vdwl   =     -2198.5979 
E_coul   =    207055.8746 E_long   =   -270415.4157 Press    =       175.2246 
Volume   =    309814.0969 
---------------- Step      450 ----- CPU =      1.8602 (sec) ----------------
TotEng   =    -25173.1470 KinEng   =     21514.1416 Temp     =       300.0062 
PotEng   =    -46687.2886 E_bond   =      2502.1530 E_angle  =     10957.5001 
E_dihed  =      5242.2725 E_impro  =       224.8919 E_vdwl   =     -2251.9325 
E_coul   =    207024.7067 E_long   =   -270386.8802 Press    =       156.1876 
Volume   =    309773.5633 
---------------- Step      500 ----- CPU =      2.0730 (sec) ----------------
TotEng   =    -25003.3781 KinEng   =     21575.3371 Temp     =       300.8595 
PotEng   =    -46578.7152 E_bond   =      2564.1923 E_angle  =     10946.2077 
E_dihed  =      5262.8164 E_impro  =       217.1667 E_vdwl   =     -2111.4630 
E_coul   =    206941.2633 E_long   =   -270398.8986 Press    =      -215.0299 
Volume   =    309773.0777 
---------------- Step      550 ----- CPU =      2.2748 (sec) ----------------
TotEng   =    -24940.3481 KinEng   =     21590.7977 Temp     =       301.0751 
PotEng   =    -46531.1458 E_bond   =      2513.3904 E_angle  =     10907.6158 
E_dihed  =      5212.3177 E_impro  =       228.1226 E_vdwl   =     -1991.7620 
E_coul   =    206999.3213 E_long   =   -270400.1516 Press    =       485.9100 
Volume   =    309723.2592 
---------------- Step      600 ----- CPU =      2.4752 (sec) ----------------
TotEng   =    -24983.0096 KinEng   =     21654.0992 Temp     =       301.9578 
PotEng   =    -46637.1088 E_bond   =      2574.4490 E_angle  =     10877.3547 
E_dihed  =      5232.5961 E_impro  =       215.1429 E_vdwl   =     -2307.4794 
E_coul   =    207173.4322 E_long   =   -270402.6044 Press    =       -24.2935 
Volume   =    309837.9478 
Loop time of 2.4753 on 12 procs for 600 steps with 32000 atoms

Performance: 41.886 ns/day, 0.573 hours/ns, 242.395 timesteps/s
96.8% CPU use with 12 MPI tasks x 1 OpenMP threads

MPI task timing breakdown:
Section |  min time  |  avg time  |  max time  |%varavg| %total
---------------------------------------------------------------
Pair    | 0.26661    | 0.31053    | 0.3611     |   4.8 | 12.55
Bond    | 0.48492    | 0.54154    | 0.68452    |   7.0 | 21.88
Kspace  | 0.50514    | 0.63797    | 0.70427    |   6.2 | 25.77
Neigh   | 0.047253   | 0.047591   | 0.047898   |   0.1 |  1.92
Comm    | 0.22114    | 0.23773    | 0.2645     |   3.5 |  9.60
Output  | 0.00090897 | 0.00094128 | 0.0012176  |   0.0 |  0.04
Modify  | 0.57556    | 0.65827    | 0.71318    |   5.6 | 26.59
Other   |            | 0.04072    |            |       |  1.65

Nlocal:        2666.67 ave        2726 max        2620 min
Histogram: 1 3 2 1 1 0 1 0 1 2
Nghost:        13234.2 ave       13322 max       13121 min
Histogram: 1 0 3 0 1 0 2 1 3 1
Neighs:              0 ave           0 max           0 min
Histogram: 12 0 0 0 0 0 0 0 0 0

Total # of neighbors = 0
Ave neighs/atom = 0
Ave special neighs/atom = 7.431875
Neighbor list builds = 66
Dangerous builds = 0


---------------------------------------------------------------------
      Device Time Info (average): 
---------------------------------------------------------------------
Data Transfer:   0.0182 s.
Neighbor copy:   0.0363 s.
Neighbor build:  0.1215 s.
Force calc:      0.3756 s.
Device Overhead: 0.1925 s.
Average split:   1.0000.
Lanes / atom:    8.
Vector width:    32.
Max Mem / Proc:  13.19 MB.
CPU Neighbor:    0.0232 s.
CPU Cast/Pack:   0.0714 s.
CPU Driver_Time: 0.0105 s.
CPU Idle_Time:   0.0021 s.
---------------------------------------------------------------------



---------------------------------------------------------------------
    Device Time Info (average) for kspace: 
---------------------------------------------------------------------
Data Out:        0.0087 s.
Data In:         0.0443 s.
Kernel (map):    0.2143 s.
Kernel (rho):    0.0688 s.
Force interp:    0.1113 s.
Total rho:       0.2919 s.
Total interp:    0.1556 s.
Force copy:      0.0126 s.
Total:           0.4601 s.
CPU Poisson:     0.4741 s.
CPU Data Cast:   0.0074 s.
CPU Idle Time:   0.1400 s.
Max Mem / Proc:  0.88 MB.
---------------------------------------------------------------------

Total wall time: 0:00:09
Intel(R) VTune(TM) Profiler 2022.1.0 collection completed successfully. Use the "aps --report /home/ubuntu/lammps/bench/aps_result_20220414" command to generate textual and HTML reports for the profiling session.
