LAMMPS (7 Jan 2022)
  using 1 OpenMP thread(s) per MPI task
Reading data file ...
  orthogonal box = (-27.5 -38.5 -36.3646) to (27.5 38.5 36.3615)
  1 by 3 by 2 MPI processor grid
  reading atoms ...
  32000 atoms
  reading velocities ...
  32000 velocities
  scanning bonds ...
  4 = max bonds/atom
  scanning angles ...
  8 = max angles/atom
  scanning dihedrals ...
  18 = max dihedrals/atom
  scanning impropers ...
  2 = max impropers/atom
  reading bonds ...
  27723 bonds
  reading angles ...
  40467 angles
  reading dihedrals ...
  56829 dihedrals
  reading impropers ...
  1034 impropers
Finding 1-2 1-3 1-4 neighbors ...
  special bond factors lj:    0        0        0       
  special bond factors coul:  0        0        0       
     4 = max # of 1-2 neighbors
    12 = max # of 1-3 neighbors
    24 = max # of 1-4 neighbors
    26 = max # of special neighbors
  special bonds CPU = 0.006 seconds
  read_data CPU = 0.413 seconds
Finding SHAKE clusters ...
    1617 = # of size 2 clusters
    3633 = # of size 3 clusters
     747 = # of size 4 clusters
    4233 = # of frozen angles
  find clusters CPU = 0.003 seconds

CITE-CITE-CITE-CITE-CITE-CITE-CITE-CITE-CITE-CITE-CITE-CITE-CITE

Your simulation uses code contributions which should be cited:
- GPU package (short-range, long-range and three-body potentials):
The log file lists these citations in BibTeX format.

CITE-CITE-CITE-CITE-CITE-CITE-CITE-CITE-CITE-CITE-CITE-CITE-CITE

PPPM initialization ...
  using 12-bit tables for long-range coulomb (../kspace.cpp:340)
  G vector (1/distance) = 0.32967033
  grid = 72 90 90
  stencil order = 5
  estimated absolute RMS force accuracy = 0.00033110871
  estimated relative force accuracy = 9.9712404e-07
  using single precision MKL FFT
  3d grid and FFT values/proc = 151996 97200

--------------------------------------------------------------------------
- Using acceleration for pppm:
-  with 6 proc(s) per device.
-  Horizontal vector operations: ENABLED
-  Shared memory system: No
--------------------------------------------------------------------------
Device 0: Tesla V100-SXM2-16GB, 80 CUs, 14/16 GB, 1.5 GHZ (Mixed Precision)
--------------------------------------------------------------------------

Initializing Device and compiling on process 0...Done.
Initializing Device 0 on core 0...Done.
Initializing Device 0 on core 1...Done.
Initializing Device 0 on core 2...Done.
Initializing Device 0 on core 3...Done.
Initializing Device 0 on core 4...Done.
Initializing Device 0 on core 5...Done.


--------------------------------------------------------------------------
- Using acceleration for lj/charmm/coul/long:
-  with 6 proc(s) per device.
-  Horizontal vector operations: ENABLED
-  Shared memory system: No
--------------------------------------------------------------------------
Device 0: Tesla V100-SXM2-16GB, 80 CUs, 14/16 GB, 1.5 GHZ (Mixed Precision)
--------------------------------------------------------------------------

Initializing Device and compiling on process 0...Done.
Initializing Device 0 on core 0...Done.
Initializing Device 0 on core 1...Done.
Initializing Device 0 on core 2...Done.
Initializing Device 0 on core 3...Done.
Initializing Device 0 on core 4...Done.
Initializing Device 0 on core 5...Done.

  generated 2278 of 2278 mixed pair_coeff terms from arithmetic mixing rule
Setting up Verlet run ...
  Unit style    : real
  Current step  : 0
  Time step     : 2
Per MPI rank memory allocation (min/avg/max) = 45.23 | 45.31 | 45.45 Mbytes
---------------- Step        0 ----- CPU =      0.0000 (sec) ----------------
TotEng   =    -25359.0976 KinEng   =     21444.8313 Temp     =       299.0397 
PotEng   =    -46803.9289 E_bond   =      2537.9940 E_angle  =     10921.3742 
E_dihed  =      5211.7865 E_impro  =       213.5116 E_vdwl   =     -2307.8635 
E_coul   =    294294.0666 E_long   =   -357674.7983 Press    =      -152.9661 
Volume   =    307995.0335 
---------------- Step       50 ----- CPU =      1.6240 (sec) ----------------
TotEng   =    -25333.6634 KinEng   =     21500.8939 Temp     =       299.8214 
PotEng   =    -46834.5573 E_bond   =      2471.6327 E_angle  =     10836.6405 
E_dihed  =      5239.4606 E_impro  =       227.1404 E_vdwl   =     -1992.5561 
E_coul   =    294073.9422 E_long   =   -357690.8176 Press    =       234.6847 
Volume   =    308031.1064 
---------------- Step      100 ----- CPU =      3.2297 (sec) ----------------
TotEng   =    -25290.0471 KinEng   =     21590.6673 Temp     =       301.0733 
PotEng   =    -46880.7144 E_bond   =      2567.7682 E_angle  =     10781.2388 
E_dihed  =      5198.4917 E_impro  =       216.7766 E_vdwl   =     -1900.4346 
E_coul   =    293940.1152 E_long   =   -357684.6704 Press    =        11.9353 
Volume   =    308132.4394 
---------------- Step      150 ----- CPU =      4.8751 (sec) ----------------
TotEng   =    -25258.0476 KinEng   =     21543.4839 Temp     =       300.4153 
PotEng   =    -46801.5314 E_bond   =      2555.8887 E_angle  =     10855.4668 
E_dihed  =      5263.9555 E_impro  =       203.1505 E_vdwl   =     -2069.5190 
E_coul   =    294057.2438 E_long   =   -357667.7177 Press    =       242.0700 
Volume   =    308516.0640 
---------------- Step      200 ----- CPU =      6.4800 (sec) ----------------
TotEng   =    -25058.6830 KinEng   =     21486.1265 Temp     =       299.6155 
PotEng   =    -46544.8095 E_bond   =      2492.2821 E_angle  =     11072.5735 
E_dihed  =      5224.5012 E_impro  =       232.2273 E_vdwl   =     -2111.0820 
E_coul   =    294236.0936 E_long   =   -357691.4052 Press    =       108.8013 
Volume   =    308993.6766 
---------------- Step      250 ----- CPU =      8.1140 (sec) ----------------
TotEng   =    -24886.4112 KinEng   =     21595.3166 Temp     =       301.1381 
PotEng   =    -46481.7278 E_bond   =      2554.1477 E_angle  =     11113.6233 
E_dihed  =      5250.8145 E_impro  =       221.9916 E_vdwl   =     -2169.3391 
E_coul   =    294228.6735 E_long   =   -357681.6393 Press    =      -160.5984 
Volume   =    309421.7194 
---------------- Step      300 ----- CPU =      9.7250 (sec) ----------------
TotEng   =    -24887.1482 KinEng   =     21599.6507 Temp     =       301.1986 
PotEng   =    -46486.7989 E_bond   =      2569.2541 E_angle  =     10908.5246 
E_dihed  =      5218.8704 E_impro  =       226.4510 E_vdwl   =     -2171.9781 
E_coul   =    294419.1812 E_long   =   -357657.1022 Press    =      -373.4222 
Volume   =    309818.1719 
---------------- Step      350 ----- CPU =     11.3859 (sec) ----------------
TotEng   =    -25097.7221 KinEng   =     21604.4437 Temp     =       301.2654 
PotEng   =    -46702.1659 E_bond   =      2585.5770 E_angle  =     10950.7509 
E_dihed  =      5198.3614 E_impro  =       208.8437 E_vdwl   =     -2113.4225 
E_coul   =    294147.6848 E_long   =   -357679.9611 Press    =      -371.1360 
Volume   =    310109.1179 
---------------- Step      400 ----- CPU =     12.9837 (sec) ----------------
TotEng   =    -25383.7092 KinEng   =     21403.8897 Temp     =       298.4688 
PotEng   =    -46787.5989 E_bond   =      2525.9823 E_angle  =     10959.0925 
E_dihed  =      5178.4736 E_impro  =       221.6919 E_vdwl   =     -2111.1992 
E_coul   =    294109.8384 E_long   =   -357671.4783 Press    =       200.6520 
Volume   =    310208.7436 
---------------- Step      450 ----- CPU =     14.5994 (sec) ----------------
TotEng   =    -25473.9466 KinEng   =     21422.0574 Temp     =       298.7221 
PotEng   =    -46896.0041 E_bond   =      2524.5493 E_angle  =     10817.5815 
E_dihed  =      5291.5224 E_impro  =       218.8955 E_vdwl   =     -2199.3371 
E_coul   =    294141.3829 E_long   =   -357690.5985 Press    =       134.5447 
Volume   =    310163.0325 
---------------- Step      500 ----- CPU =     16.2142 (sec) ----------------
TotEng   =    -25148.8414 KinEng   =     21396.4428 Temp     =       298.3649 
PotEng   =    -46545.2842 E_bond   =      2601.0094 E_angle  =     10970.3753 
E_dihed  =      5254.4458 E_impro  =       219.7974 E_vdwl   =     -2294.8371 
E_coul   =    294369.4108 E_long   =   -357665.4858 Press    =      -449.5720 
Volume   =    310122.1562 
---------------- Step      550 ----- CPU =     17.8336 (sec) ----------------
TotEng   =    -24737.1715 KinEng   =     21800.8328 Temp     =       304.0040 
PotEng   =    -46538.0042 E_bond   =      2535.3195 E_angle  =     10966.6649 
E_dihed  =      5248.5133 E_impro  =       233.2109 E_vdwl   =     -2021.0521 
E_coul   =    294171.1877 E_long   =   -357671.8485 Press    =       312.1104 
Volume   =    309966.0637 
---------------- Step      600 ----- CPU =     19.4237 (sec) ----------------
TotEng   =    -24675.7902 KinEng   =     21719.6162 Temp     =       302.8714 
PotEng   =    -46395.4064 E_bond   =      2580.5436 E_angle  =     11075.0029 
E_dihed  =      5251.7216 E_impro  =       224.5369 E_vdwl   =     -2136.4192 
E_coul   =    294292.5408 E_long   =   -357683.3331 Press    =        85.2973 
Volume   =    309924.7910 
Loop time of 19.4237 on 6 procs for 600 steps with 32000 atoms

Performance: 5.338 ns/day, 4.496 hours/ns, 30.890 timesteps/s
98.5% CPU use with 6 MPI tasks x 1 OpenMP threads

MPI task timing breakdown:
Section |  min time  |  avg time  |  max time  |%varavg| %total
---------------------------------------------------------------
Pair    | 0.75358    | 0.88259    | 1.0353     |   8.8 |  4.54
Bond    | 1.0879     | 1.1521     | 1.2279     |   4.7 |  5.93
Kspace  | 7.749      | 7.8244     | 7.8999     |   1.9 | 40.28
Neigh   | 0.11992    | 0.12328    | 0.125      |   0.6 |  0.63
Comm    | 0.51786    | 0.57994    | 0.64977    |   6.3 |  2.99
Output  | 0.0010198  | 0.0010813  | 0.0013686  |   0.4 |  0.01
Modify  | 8.3862     | 8.5325     | 8.6298     |   3.1 | 43.93
Other   |            | 0.3278     |            |       |  1.69

Nlocal:        5333.33 ave        5402 max        5258 min
Histogram: 1 1 1 0 0 0 0 0 1 2
Nghost:        18999.5 ave       19058 max       18903 min
Histogram: 1 0 0 0 0 1 2 0 0 2
Neighs:              0 ave           0 max           0 min
Histogram: 6 0 0 0 0 0 0 0 0 0

Total # of neighbors = 0
Ave neighs/atom = 0
Ave special neighs/atom = 7.431875
Neighbor list builds = 66
Dangerous builds = 0


---------------------------------------------------------------------
      Device Time Info (average): 
---------------------------------------------------------------------
Data Transfer:   0.0274 s.
Neighbor copy:   0.0432 s.
Neighbor build:  0.2469 s.
Force calc:      0.8835 s.
Device Overhead: 0.4056 s.
Average split:   1.0000.
Lanes / atom:    8.
Vector width:    32.
Max Mem / Proc:  26.33 MB.
CPU Neighbor:    0.0343 s.
CPU Cast/Pack:   0.1224 s.
CPU Driver_Time: 0.0185 s.
CPU Idle_Time:   0.0047 s.
---------------------------------------------------------------------



---------------------------------------------------------------------
    Device Time Info (average) for kspace: 
---------------------------------------------------------------------
Data Out:        0.0432 s.
Data In:         0.4608 s.
Kernel (map):    0.5445 s.
Kernel (rho):    0.0769 s.
Force interp:    0.2494 s.
Total rho:       0.6645 s.
Total interp:    0.7102 s.
Force copy:      0.0265 s.
Total:           1.4012 s.
CPU Poisson:     7.4249 s.
CPU Data Cast:   0.0156 s.
CPU Idle Time:   0.3481 s.
Max Mem / Proc:  22.03 MB.
---------------------------------------------------------------------

Total wall time: 0:00:26
Intel(R) VTune(TM) Profiler 2022.2.0 collection completed successfully. Use the "aps --report /home/ubuntu/lammps/bench/aps_result_20220531" command to generate textual and HTML reports for the profiling session.
