LAMMPS (7 Jan 2022)
  using 1 OpenMP thread(s) per MPI task
Reading data file ...
  orthogonal box = (-27.5 -38.5 -36.3646) to (27.5 38.5 36.3615)
  3 by 4 by 3 MPI processor grid
  reading atoms ...
  32000 atoms
  reading velocities ...
  32000 velocities
  scanning bonds ...
  4 = max bonds/atom
  scanning angles ...
  8 = max angles/atom
  scanning dihedrals ...
  18 = max dihedrals/atom
  scanning impropers ...
  2 = max impropers/atom
  reading bonds ...
  27723 bonds
  reading angles ...
  40467 angles
  reading dihedrals ...
  56829 dihedrals
  reading impropers ...
  1034 impropers
Finding 1-2 1-3 1-4 neighbors ...
  special bond factors lj:    0        0        0       
  special bond factors coul:  0        0        0       
     4 = max # of 1-2 neighbors
    12 = max # of 1-3 neighbors
    24 = max # of 1-4 neighbors
    26 = max # of special neighbors
  special bonds CPU = 0.007 seconds
  read_data CPU = 0.395 seconds
Replicating atoms ...
  orthogonal box = (-27.5 -38.5 -36.3646) to (137.5 192.5 181.8137)
  3 by 4 by 3 MPI processor grid
  864000 atoms
  748521 bonds
  1092609 angles
  1534383 dihedrals
  27918 impropers
Finding 1-2 1-3 1-4 neighbors ...
  special bond factors lj:    0        0        0       
  special bond factors coul:  0        0        0       
     4 = max # of 1-2 neighbors
    12 = max # of 1-3 neighbors
    24 = max # of 1-4 neighbors
    26 = max # of special neighbors
  special bonds CPU = 0.051 seconds
  replicate CPU = 0.118 seconds
Finding SHAKE clusters ...
   43659 = # of size 2 clusters
   98091 = # of size 3 clusters
   20169 = # of size 4 clusters
  114291 = # of frozen angles
  find clusters CPU = 0.025 seconds

CITE-CITE-CITE-CITE-CITE-CITE-CITE-CITE-CITE-CITE-CITE-CITE-CITE

Your simulation uses code contributions which should be cited:
- GPU package (short-range, long-range and three-body potentials):
The log file lists these citations in BibTeX format.

CITE-CITE-CITE-CITE-CITE-CITE-CITE-CITE-CITE-CITE-CITE-CITE-CITE

PPPM initialization ...
  using 12-bit tables for long-range coulomb (../kspace.cpp:340)
  G vector (1/distance) = 0.28871234
  grid = 120 160 150
  stencil order = 5
  estimated absolute RMS force accuracy = 0.0041674947
  estimated relative force accuracy = 1.2550286e-05
  using single precision MKL FFT
  3d grid and FFT values/proc = 125913 96000

--------------------------------------------------------------------------
- Using acceleration for pppm:
-  with 18 proc(s) per device.
-  Horizontal vector operations: ENABLED
-  Shared memory system: No
--------------------------------------------------------------------------
Device 0: Tesla V100-SXM2-16GB, 80 CUs, 10/16 GB, 1.5 GHZ (Mixed Precision)
Device 1: Tesla V100-SXM2-16GB, 80 CUs, 1.5 GHZ (Mixed Precision)
--------------------------------------------------------------------------

Initializing Device and compiling on process 0...Done.
Initializing Devices 0-1 on core 0...Done.
Initializing Devices 0-1 on core 1...Done.
Initializing Devices 0-1 on core 2...Done.
Initializing Devices 0-1 on core 3...Done.
Initializing Devices 0-1 on core 4...Done.
Initializing Devices 0-1 on core 5...Done.
Initializing Devices 0-1 on core 6...Done.
Initializing Devices 0-1 on core 7...Done.
Initializing Devices 0-1 on core 8...Done.
Initializing Devices 0-1 on core 9...Done.
Initializing Devices 0-1 on core 10...Done.
Initializing Devices 0-1 on core 11...Done.
Initializing Devices 0-1 on core 12...Done.
Initializing Devices 0-1 on core 13...Done.
Initializing Devices 0-1 on core 14...Done.
Initializing Devices 0-1 on core 15...Done.
Initializing Devices 0-1 on core 16...Done.
Initializing Devices 0-1 on core 17...Done.


--------------------------------------------------------------------------
- Using acceleration for lj/charmm/coul/long:
-  with 18 proc(s) per device.
-  Horizontal vector operations: ENABLED
-  Shared memory system: No
--------------------------------------------------------------------------
Device 0: Tesla V100-SXM2-16GB, 80 CUs, 10/16 GB, 1.5 GHZ (Mixed Precision)
Device 1: Tesla V100-SXM2-16GB, 80 CUs, 1.5 GHZ (Mixed Precision)
--------------------------------------------------------------------------

Initializing Device and compiling on process 0...Done.
Initializing Devices 0-1 on core 0...Done.
Initializing Devices 0-1 on core 1...Done.
Initializing Devices 0-1 on core 2...Done.
Initializing Devices 0-1 on core 3...Done.
Initializing Devices 0-1 on core 4...Done.
Initializing Devices 0-1 on core 5...Done.
Initializing Devices 0-1 on core 6...Done.
Initializing Devices 0-1 on core 7...Done.
Initializing Devices 0-1 on core 8...Done.
Initializing Devices 0-1 on core 9...Done.
Initializing Devices 0-1 on core 10...Done.
Initializing Devices 0-1 on core 11...Done.
Initializing Devices 0-1 on core 12...Done.
Initializing Devices 0-1 on core 13...Done.
Initializing Devices 0-1 on core 14...Done.
Initializing Devices 0-1 on core 15...Done.
Initializing Devices 0-1 on core 16...Done.
Initializing Devices 0-1 on core 17...Done.

  generated 2278 of 2278 mixed pair_coeff terms from arithmetic mixing rule
Setting up Verlet run ...
  Unit style    : real
  Current step  : 0
  Time step     : 2
Per MPI rank memory allocation (min/avg/max) = 81.81 | 82.25 | 83.46 Mbytes
---------------- Step        0 ----- CPU =      0.0000 (sec) ----------------
TotEng   =   -684685.0273 KinEng   =    579010.4447 Temp     =       299.0277 
PotEng   =  -1263695.4720 E_bond   =     68525.8383 E_angle  =    294877.1036 
E_dihed  =    140718.2355 E_impro  =      5764.8128 E_vdwl   =    -62312.3570 
E_coul   =   6754313.6565 E_long   =  -8465582.7618 Press    =      -152.7190 
Volume   =   8315865.9045 
---------------- Step       50 ----- CPU =      3.2687 (sec) ----------------
TotEng   =   -683977.1227 KinEng   =    580538.5710 Temp     =       299.8169 
PotEng   =  -1264515.6937 E_bond   =     66735.4032 E_angle  =    292592.3653 
E_dihed  =    141466.3532 E_impro  =      6132.7426 E_vdwl   =    -53798.6094 
E_coul   =   6748223.5465 E_long   =  -8465867.4950 Press    =       235.0042 
Volume   =   8316840.2427 
---------------- Step      100 ----- CPU =      6.6023 (sec) ----------------
TotEng   =   -682765.5713 KinEng   =    582926.9784 Temp     =       301.0504 
PotEng   =  -1265692.5497 E_bond   =     69332.9995 E_angle  =    291109.5478 
E_dihed  =    140363.1021 E_impro  =      5853.7498 E_vdwl   =    -51319.2772 
E_coul   =   6744664.8220 E_long   =  -8465697.4938 Press    =        12.2674 
Volume   =   8319577.2479 
Loop time of 6.6024 on 36 procs for 100 steps with 864000 atoms

Performance: 2.617 ns/day, 9.170 hours/ns, 15.146 timesteps/s
96.0% CPU use with 36 MPI tasks x 1 OpenMP threads

MPI task timing breakdown:
Section |  min time  |  avg time  |  max time  |%varavg| %total
---------------------------------------------------------------
Pair    | 0.51241    | 0.58313    | 0.6546     |   4.7 |  8.83
Bond    | 0.79978    | 0.82462    | 0.861      |   2.1 | 12.49
Kspace  | 2.1622     | 2.2039     | 2.2367     |   1.4 | 33.38
Neigh   | 0.19068    | 0.1944     | 0.19781    |   0.4 |  2.94
Comm    | 0.29847    | 0.39846    | 0.43       |   6.8 |  6.04
Output  | 0.00036886 | 0.00038101 | 0.000447   |   0.0 |  0.01
Modify  | 2.062      | 2.1741     | 2.4745     |   7.0 | 32.93
Other   |            | 0.2234     |            |       |  3.38

Nlocal:          24000 ave       24064 max       23925 min
Histogram: 9 0 0 9 0 0 0 0 9 9
Nghost:        40677.5 ave       40792 max       40534 min
Histogram: 9 0 0 0 9 0 0 9 0 9
Neighs:              0 ave           0 max           0 min
Histogram: 36 0 0 0 0 0 0 0 0 0

Total # of neighbors = 0
Ave neighs/atom = 0
Ave special neighs/atom = 7.431875
Neighbor list builds = 11
Dangerous builds = 0


---------------------------------------------------------------------
      Device Time Info (average): 
---------------------------------------------------------------------
Data Transfer:   0.0114 s.
Neighbor copy:   0.1204 s.
Neighbor build:  0.2323 s.
Force calc:      0.6892 s.
Device Overhead: 0.1991 s.
Average split:   1.0000.
Lanes / atom:    8.
Vector width:    32.
Max Mem / Proc:  116.14 MB.
CPU Neighbor:    0.0375 s.
CPU Cast/Pack:   0.1022 s.
CPU Driver_Time: 0.0032 s.
CPU Idle_Time:   0.0017 s.
---------------------------------------------------------------------



---------------------------------------------------------------------
    Device Time Info (average) for kspace: 
---------------------------------------------------------------------
Data Out:        0.0120 s.
Data In:         0.3379 s.
Kernel (map):    0.4041 s.
Kernel (rho):    0.0174 s.
Force interp:    0.0593 s.
Total rho:       0.4335 s.
Total interp:    0.3972 s.
Force copy:      0.0244 s.
Total:           0.8552 s.
CPU Poisson:     1.8515 s.
CPU Data Cast:   0.0127 s.
CPU Idle Time:   0.3625 s.
Max Mem / Proc:  20.15 MB.
---------------------------------------------------------------------

Total wall time: 0:00:54
Intel(R) VTune(TM) Profiler 2022.2.0 collection completed successfully. Use the "aps --report /home/ubuntu/lammps/bench/aps_result_20220531" command to generate textual and HTML reports for the profiling session.
