LAMMPS (7 Jan 2022)
  using 1 OpenMP thread(s) per MPI task
Reading data file ...
  orthogonal box = (-27.5 -38.5 -36.3646) to (27.5 38.5 36.3615)
  2 by 3 by 3 MPI processor grid
  reading atoms ...
  32000 atoms
  reading velocities ...
  32000 velocities
  scanning bonds ...
  4 = max bonds/atom
  scanning angles ...
  8 = max angles/atom
  scanning dihedrals ...
  18 = max dihedrals/atom
  scanning impropers ...
  2 = max impropers/atom
  reading bonds ...
  27723 bonds
  reading angles ...
  40467 angles
  reading dihedrals ...
  56829 dihedrals
  reading impropers ...
  1034 impropers
Finding 1-2 1-3 1-4 neighbors ...
  special bond factors lj:    0        0        0       
  special bond factors coul:  0        0        0       
     4 = max # of 1-2 neighbors
    12 = max # of 1-3 neighbors
    24 = max # of 1-4 neighbors
    26 = max # of special neighbors
  special bonds CPU = 0.006 seconds
  read_data CPU = 0.384 seconds
Finding SHAKE clusters ...
    1617 = # of size 2 clusters
    3633 = # of size 3 clusters
     747 = # of size 4 clusters
    4233 = # of frozen angles
  find clusters CPU = 0.004 seconds

CITE-CITE-CITE-CITE-CITE-CITE-CITE-CITE-CITE-CITE-CITE-CITE-CITE

Your simulation uses code contributions which should be cited:
- GPU package (short-range, long-range and three-body potentials):
The log file lists these citations in BibTeX format.

CITE-CITE-CITE-CITE-CITE-CITE-CITE-CITE-CITE-CITE-CITE-CITE-CITE

PPPM initialization ...
  using 12-bit tables for long-range coulomb (../kspace.cpp:340)
  G vector (1/distance) = 0.24883488
  grid = 25 32 32
  stencil order = 5
  estimated absolute RMS force accuracy = 0.035547797
  estimated relative force accuracy = 0.00010705113
  using single precision MKL FFT
  3d grid and FFT values/proc = 5202 1600

--------------------------------------------------------------------------
- Using acceleration for pppm:
-  with 3 proc(s) per device.
-  Horizontal vector operations: ENABLED
-  Shared memory system: No
--------------------------------------------------------------------------
Device 0: Tesla V100-SXM2-16GB, 80 CUs, 15/16 GB, 1.5 GHZ (Mixed Precision)
Device 1: Tesla V100-SXM2-16GB, 80 CUs, 1.5 GHZ (Mixed Precision)
Device 2: Tesla V100-SXM2-16GB, 80 CUs, 1.5 GHZ (Mixed Precision)
Device 3: Tesla V100-SXM2-16GB, 80 CUs, 1.5 GHZ (Mixed Precision)
Device 4: Tesla V100-SXM2-16GB, 80 CUs, 1.5 GHZ (Mixed Precision)
Device 5: Tesla V100-SXM2-16GB, 80 CUs, 1.5 GHZ (Mixed Precision)
--------------------------------------------------------------------------

Initializing Device and compiling on process 0...Done.
Initializing Devices 0-5 on core 0...Done.
Initializing Devices 0-5 on core 1...Done.
Initializing Devices 0-5 on core 2...Done.


--------------------------------------------------------------------------
- Using acceleration for lj/charmm/coul/long:
-  with 3 proc(s) per device.
-  Horizontal vector operations: ENABLED
-  Shared memory system: No
--------------------------------------------------------------------------
Device 0: Tesla V100-SXM2-16GB, 80 CUs, 15/16 GB, 1.5 GHZ (Mixed Precision)
Device 1: Tesla V100-SXM2-16GB, 80 CUs, 1.5 GHZ (Mixed Precision)
Device 2: Tesla V100-SXM2-16GB, 80 CUs, 1.5 GHZ (Mixed Precision)
Device 3: Tesla V100-SXM2-16GB, 80 CUs, 1.5 GHZ (Mixed Precision)
Device 4: Tesla V100-SXM2-16GB, 80 CUs, 1.5 GHZ (Mixed Precision)
Device 5: Tesla V100-SXM2-16GB, 80 CUs, 1.5 GHZ (Mixed Precision)
--------------------------------------------------------------------------

Initializing Device and compiling on process 0...Done.
Initializing Devices 0-5 on core 0...Done.
Initializing Devices 0-5 on core 1...Done.
Initializing Devices 0-5 on core 2...Done.

  generated 2278 of 2278 mixed pair_coeff terms from arithmetic mixing rule
Setting up Verlet run ...
  Unit style    : real
  Current step  : 0
  Time step     : 2
Per MPI rank memory allocation (min/avg/max) = 18.27 | 18.41 | 18.7 Mbytes
---------------- Step        0 ----- CPU =      0.0000 (sec) ----------------
TotEng   =    -25356.2687 KinEng   =     21444.8313 Temp     =       299.0397 
PotEng   =    -46801.1000 E_bond   =      2537.9940 E_angle  =     10921.3742 
E_dihed  =      5211.7865 E_impro  =       213.5116 E_vdwl   =     -2307.8635 
E_coul   =    207025.8394 E_long   =   -270403.7422 Press    =      -149.3321 
Volume   =    307995.0335 
---------------- Step       50 ----- CPU =      0.2237 (sec) ----------------
TotEng   =    -25330.0817 KinEng   =     21500.9986 Temp     =       299.8229 
PotEng   =    -46831.0804 E_bond   =      2471.7037 E_angle  =     10836.5109 
E_dihed  =      5239.6320 E_impro  =       227.1219 E_vdwl   =     -1993.2895 
E_coul   =    206797.6420 E_long   =   -270410.4013 Press    =       237.6578 
Volume   =    308031.6776 
---------------- Step      100 ----- CPU =      0.4252 (sec) ----------------
TotEng   =    -25290.7946 KinEng   =     21591.9049 Temp     =       301.0906 
PotEng   =    -46882.6996 E_bond   =      2567.9807 E_angle  =     10781.9577 
E_dihed  =      5198.7494 E_impro  =       216.7865 E_vdwl   =     -1902.6669 
E_coul   =    206659.4752 E_long   =   -270404.9821 Press    =         6.7243 
Volume   =    308134.2326 
---------------- Step      150 ----- CPU =      0.6180 (sec) ----------------
TotEng   =    -25258.1295 KinEng   =     21529.6615 Temp     =       300.2226 
PotEng   =    -46787.7911 E_bond   =      2556.3454 E_angle  =     10852.7825 
E_dihed  =      5265.2329 E_impro  =       203.0689 E_vdwl   =     -2066.1587 
E_coul   =    206797.4255 E_long   =   -270396.4876 Press    =       251.4549 
Volume   =    308515.2423 
---------------- Step      200 ----- CPU =      0.8103 (sec) ----------------
TotEng   =    -25078.8975 KinEng   =     21571.1908 Temp     =       300.8017 
PotEng   =    -46650.0883 E_bond   =      2488.6929 E_angle  =     11073.4387 
E_dihed  =      5221.7525 E_impro  =       232.8564 E_vdwl   =     -2167.6063 
E_coul   =    206902.9020 E_long   =   -270402.1246 Press    =        20.8222 
Volume   =    308997.5371 
---------------- Step      250 ----- CPU =      1.0011 (sec) ----------------
TotEng   =    -24944.3479 KinEng   =     21547.8179 Temp     =       300.4758 
PotEng   =    -46492.1658 E_bond   =      2542.5529 E_angle  =     11105.4158 
E_dihed  =      5239.6549 E_impro  =       212.3518 E_vdwl   =     -2168.9414 
E_coul   =    206988.9898 E_long   =   -270412.1895 Press    =      -170.1382 
Volume   =    309388.1041 
---------------- Step      300 ----- CPU =      1.1892 (sec) ----------------
TotEng   =    -25000.9887 KinEng   =     21496.2538 Temp     =       299.7567 
PotEng   =    -46497.2425 E_bond   =      2558.1220 E_angle  =     10923.1874 
E_dihed  =      5211.1899 E_impro  =       222.2816 E_vdwl   =     -2221.3633 
E_coul   =    207195.9977 E_long   =   -270386.6578 Press    =      -374.2043 
Volume   =    309663.3226 
---------------- Step      350 ----- CPU =      1.3795 (sec) ----------------
TotEng   =    -25131.2244 KinEng   =     21467.4881 Temp     =       299.3556 
PotEng   =    -46598.7125 E_bond   =      2580.2376 E_angle  =     10952.6977 
E_dihed  =      5250.5357 E_impro  =       212.6455 E_vdwl   =     -2163.9011 
E_coul   =    206969.9338 E_long   =   -270400.8615 Press    =      -334.6449 
Volume   =    309799.4058 
---------------- Step      400 ----- CPU =      1.5799 (sec) ----------------
TotEng   =    -25210.4675 KinEng   =     21454.9605 Temp     =       299.1809 
PotEng   =    -46665.4280 E_bond   =      2524.9619 E_angle  =     10966.0291 
E_dihed  =      5206.2224 E_impro  =       213.1629 E_vdwl   =     -2189.9371 
E_coul   =    207028.7191 E_long   =   -270414.5864 Press    =       181.6332 
Volume   =    309813.9239 
---------------- Step      450 ----- CPU =      1.7926 (sec) ----------------
TotEng   =    -25181.5648 KinEng   =     21465.8731 Temp     =       299.3331 
PotEng   =    -46647.4379 E_bond   =      2502.7396 E_angle  =     10955.7036 
E_dihed  =      5239.4206 E_impro  =       225.0944 E_vdwl   =     -2269.7121 
E_coul   =    207087.4129 E_long   =   -270388.0968 Press    =       138.9226 
Volume   =    309773.6162 
---------------- Step      500 ----- CPU =      1.9810 (sec) ----------------
TotEng   =    -25015.0176 KinEng   =     21560.8526 Temp     =       300.6575 
PotEng   =    -46575.8702 E_bond   =      2565.6168 E_angle  =     10931.9942 
E_dihed  =      5258.7180 E_impro  =       218.9927 E_vdwl   =     -2169.5451 
E_coul   =    207018.9515 E_long   =   -270400.5983 Press    =      -258.5385 
Volume   =    309737.4746 
---------------- Step      550 ----- CPU =      2.1718 (sec) ----------------
TotEng   =    -24924.0514 KinEng   =     21748.4522 Temp     =       303.2735 
PotEng   =    -46672.5036 E_bond   =      2514.2813 E_angle  =     10911.5812 
E_dihed  =      5192.8611 E_impro  =       225.5378 E_vdwl   =     -2054.5352 
E_coul   =    206936.9403 E_long   =   -270399.1701 Press    =       362.8888 
Volume   =    309688.3301 
---------------- Step      600 ----- CPU =      2.3594 (sec) ----------------
TotEng   =    -24985.2817 KinEng   =     21707.6216 Temp     =       302.7042 
PotEng   =    -46692.9033 E_bond   =      2565.8307 E_angle  =     10863.3375 
E_dihed  =      5242.4725 E_impro  =       218.4198 E_vdwl   =     -2054.8169 
E_coul   =    206884.5491 E_long   =   -270412.6960 Press    =       138.2874 
Volume   =    309871.5609 
Loop time of 2.35948 on 18 procs for 600 steps with 32000 atoms

Performance: 43.942 ns/day, 0.546 hours/ns, 254.293 timesteps/s
96.3% CPU use with 18 MPI tasks x 1 OpenMP threads

MPI task timing breakdown:
Section |  min time  |  avg time  |  max time  |%varavg| %total
---------------------------------------------------------------
Pair    | 0.27607    | 0.31278    | 0.36244    |   4.4 | 13.26
Bond    | 0.2258     | 0.38913    | 0.65387    |  25.7 | 16.49
Kspace  | 0.56599    | 0.82137    | 0.98805    |  17.4 | 34.81
Neigh   | 0.042156   | 0.04337    | 0.044279   |   0.2 |  1.84
Comm    | 0.20923    | 0.22033    | 0.25241    |   3.2 |  9.34
Output  | 0.00081829 | 0.0008433  | 0.0010988  |   0.0 |  0.04
Modify  | 0.45758    | 0.53386    | 0.58466    |   5.7 | 22.63
Other   |            | 0.0378     |            |       |  1.60

Nlocal:        1777.78 ave        1841 max        1727 min
Histogram: 2 3 1 2 3 2 1 1 0 3
Nghost:        11015.9 ave       11174 max       10846 min
Histogram: 2 1 1 3 2 2 1 1 3 2
Neighs:              0 ave           0 max           0 min
Histogram: 18 0 0 0 0 0 0 0 0 0

Total # of neighbors = 0
Ave neighs/atom = 0
Ave special neighs/atom = 7.431875
Neighbor list builds = 66
Dangerous builds = 0


---------------------------------------------------------------------
      Device Time Info (average): 
---------------------------------------------------------------------
Data Transfer:   0.0199 s.
Neighbor copy:   0.0334 s.
Neighbor build:  0.1192 s.
Force calc:      0.3638 s.
Device Overhead: 0.2068 s.
Average split:   1.0000.
Lanes / atom:    8.
Vector width:    32.
Max Mem / Proc:  9.01 MB.
CPU Neighbor:    0.0278 s.
CPU Cast/Pack:   0.0534 s.
CPU Driver_Time: 0.0166 s.
CPU Idle_Time:   0.0027 s.
---------------------------------------------------------------------



---------------------------------------------------------------------
    Device Time Info (average) for kspace: 
---------------------------------------------------------------------
Data Out:        0.0119 s.
Data In:         0.0386 s.
Kernel (map):    0.2209 s.
Kernel (rho):    0.0692 s.
Force interp:    0.1121 s.
Total rho:       0.3020 s.
Total interp:    0.1508 s.
Force copy:      0.0111 s.
Total:           0.4639 s.
CPU Poisson:     0.5924 s.
CPU Data Cast:   0.0042 s.
CPU Idle Time:   0.1911 s.
Max Mem / Proc:  0.65 MB.
---------------------------------------------------------------------

Total wall time: 0:00:24
Intel(R) VTune(TM) Profiler 2022.2.0 collection completed successfully. Use the "aps --report /home/ubuntu/lammps/bench/aps_result_20220530" command to generate textual and HTML reports for the profiling session.
