LAMMPS (7 Jan 2022)
  using 1 OpenMP thread(s) per MPI task
New timer settings: style=full  mode=nosync  timeout=off
Reading data file ...
  orthogonal box = (-27.5 -38.5 -36.3646) to (27.5 38.5 36.3615)
  2 by 4 by 2 MPI processor grid
  reading atoms ...
  32000 atoms
  reading velocities ...
  32000 velocities
  scanning bonds ...
  4 = max bonds/atom
  scanning angles ...
  8 = max angles/atom
  scanning dihedrals ...
  18 = max dihedrals/atom
  scanning impropers ...
  2 = max impropers/atom
  reading bonds ...
  27723 bonds
  reading angles ...
  40467 angles
  reading dihedrals ...
  56829 dihedrals
  reading impropers ...
  1034 impropers
Finding 1-2 1-3 1-4 neighbors ...
  special bond factors lj:    0        0        0       
  special bond factors coul:  0        0        0       
     4 = max # of 1-2 neighbors
    12 = max # of 1-3 neighbors
    24 = max # of 1-4 neighbors
    26 = max # of special neighbors
  special bonds CPU = 0.006 seconds
  read_data CPU = 0.338 seconds
Replicating atoms ...
  orthogonal box = (-27.5 -38.5 -36.3646) to (192.5 269.5 254.5398)
  2 by 4 by 2 MPI processor grid
  2048000 atoms
  1774272 bonds
  2589888 angles
  3637056 dihedrals
  66176 impropers
Finding 1-2 1-3 1-4 neighbors ...
  special bond factors lj:    0        0        0       
  special bond factors coul:  0        0        0       
     4 = max # of 1-2 neighbors
    12 = max # of 1-3 neighbors
    24 = max # of 1-4 neighbors
    26 = max # of special neighbors
  special bonds CPU = 0.197 seconds
  replicate CPU = 0.338 seconds
Finding SHAKE clusters ...
  103488 = # of size 2 clusters
  232512 = # of size 3 clusters
   47808 = # of size 4 clusters
  270912 = # of frozen angles
  find clusters CPU = 0.084 seconds

CITE-CITE-CITE-CITE-CITE-CITE-CITE-CITE-CITE-CITE-CITE-CITE-CITE

Your simulation uses code contributions which should be cited:
- GPU package (short-range, long-range and three-body potentials):
The log file lists these citations in BibTeX format.

CITE-CITE-CITE-CITE-CITE-CITE-CITE-CITE-CITE-CITE-CITE-CITE-CITE

PPPM initialization ...
  using 12-bit tables for long-range coulomb (../kspace.cpp:340)
  G vector (1/distance) = 0.24521748
  grid = 96 125 120
  stencil order = 5
  estimated absolute RMS force accuracy = 0.042505564
  estimated relative force accuracy = 0.00012800424
  using single precision MKL FFT
  3d grid and FFT values/proc = 127465 96000

--------------------------------------------------------------------------
- Using acceleration for pppm:
-  with 16 proc(s) per device.
-  Horizontal vector operations: ENABLED
-  Shared memory system: No
--------------------------------------------------------------------------
Device 0: Tesla V100-SXM2-16GB, 80 CUs, 11/16 GB, 1.5 GHZ (Mixed Precision)
--------------------------------------------------------------------------

Initializing Device and compiling on process 0...Done.
Initializing Device 0 on core 0...Done.
Initializing Device 0 on core 1...Done.
Initializing Device 0 on core 2...Done.
Initializing Device 0 on core 3...Done.
Initializing Device 0 on core 4...Done.
Initializing Device 0 on core 5...Done.
Initializing Device 0 on core 6...Done.
Initializing Device 0 on core 7...Done.
Initializing Device 0 on core 8...Done.
Initializing Device 0 on core 9...Done.
Initializing Device 0 on core 10...Done.
Initializing Device 0 on core 11...Done.
Initializing Device 0 on core 12...Done.
Initializing Device 0 on core 13...Done.
Initializing Device 0 on core 14...Done.
Initializing Device 0 on core 15...Done.


--------------------------------------------------------------------------
- Using acceleration for lj/charmm/coul/long:
-  with 16 proc(s) per device.
-  Horizontal vector operations: ENABLED
-  Shared memory system: No
--------------------------------------------------------------------------
Device 0: Tesla V100-SXM2-16GB, 80 CUs, 10/16 GB, 1.5 GHZ (Mixed Precision)
--------------------------------------------------------------------------

Initializing Device and compiling on process 0...Done.
Initializing Device 0 on core 0...Done.
Initializing Device 0 on core 1...Done.
Initializing Device 0 on core 2...Done.
Initializing Device 0 on core 3...Done.
Initializing Device 0 on core 4...Done.
Initializing Device 0 on core 5...Done.
Initializing Device 0 on core 6...Done.
Initializing Device 0 on core 7...Done.
Initializing Device 0 on core 8...Done.
Initializing Device 0 on core 9...Done.
Initializing Device 0 on core 10...Done.
Initializing Device 0 on core 11...Done.
Initializing Device 0 on core 12...Done.
Initializing Device 0 on core 13...Done.
Initializing Device 0 on core 14...Done.
Initializing Device 0 on core 15...Done.

  generated 2278 of 2278 mixed pair_coeff terms from arithmetic mixing rule
Setting up Verlet run ...
  Unit style    : real
  Current step  : 0
  Time step     : 2
Per MPI rank memory allocation (min/avg/max) = 291.5 | 291.7 | 292 Mbytes
---------------- Step        0 ----- CPU =      0.0000 (sec) ----------------
TotEng   =  -1622757.0345 KinEng   =   1372469.2022 Temp     =       299.0274 
PotEng   =  -2995226.2367 E_bond   =    162431.6167 E_angle  =    698967.9493 
E_dihed  =    333554.3360 E_impro  =     13664.7415 E_vdwl   =   -147703.3196 
E_coul   =  12998901.2598 E_long   = -17055042.8204 Press    =      -148.6932 
Volume   =  19711682.1440 
---------------- Step       50 ----- CPU =      8.3222 (sec) ----------------
TotEng   =  -1621040.3693 KinEng   =   1376072.5949 Temp     =       299.8125 
PotEng   =  -2997112.9642 E_bond   =    158195.5662 E_angle  =    693548.5037 
E_dihed  =    335344.2035 E_impro  =     14535.9720 E_vdwl   =   -127551.9392 
E_coul   =  12984287.6631 E_long   = -17055472.9335 Press    =       238.7540 
Volume   =  19714039.4505 
---------------- Step      100 ----- CPU =     16.8025 (sec) ----------------
TotEng   =  -1618501.4879 KinEng   =   1381843.7777 Temp     =       301.0699 
PotEng   =  -3000345.2657 E_bond   =    164361.2517 E_angle  =    690056.9850 
E_dihed  =    332707.9677 E_impro  =     13870.0736 E_vdwl   =   -121504.7743 
E_coul   =  12975295.0442 E_long   = -17055131.8136 Press    =        11.4629 
Volume   =  19720645.0448 
Loop time of 16.8026 on 16 procs for 100 steps with 2048000 atoms

Performance: 1.028 ns/day, 23.337 hours/ns, 5.951 timesteps/s
96.5% CPU use with 16 MPI tasks x 1 OpenMP threads

MPI task timing breakdown:
Section |  min time  |  avg time  |  max time  |%varavg|  %CPU | %total
-----------------------------------------------------------------------
Pair    | 0.86338    | 0.93509    | 1.0059     |   4.5 |  97.3 |  5.57
Bond    | 4.542      | 4.5747     | 4.6198     |   0.9 |  99.6 | 27.23
Kspace  | 4.082      | 4.1298     | 4.1688     |   1.0 |  95.2 | 24.58
Neigh   | 0.92524    | 0.93633    | 0.94364    |   0.5 |  87.0 |  5.57
Comm    | 0.74776    | 0.79427    | 0.84045    |   3.7 |  89.8 |  4.73
Output  | 0.001039   | 0.0010756  | 0.001114   |   0.1 | 100.0 |  0.01
Modify  | 4.9594     | 5.1096     | 5.2785     |   3.7 |  97.5 | 30.41
Other   |            | 0.3217     |            |       |       |  1.91

Nlocal:         128000 ave      128000 max      128000 min
Histogram: 16 0 0 0 0 0 0 0 0 0
Nghost:         109944 ave      109945 max      109942 min
Histogram: 4 0 0 4 0 0 0 0 0 8
Neighs:              0 ave           0 max           0 min
Histogram: 16 0 0 0 0 0 0 0 0 0

Total # of neighbors = 0
Ave neighs/atom = 0
Ave special neighs/atom = 7.431875
Neighbor list builds = 11
Dangerous builds = 0


---------------------------------------------------------------------
      Device Time Info (average): 
---------------------------------------------------------------------
Data Transfer:   0.0388 s.
Neighbor copy:   0.2924 s.
Neighbor build:  2.7814 s.
Force calc:      1.6037 s.
Device Overhead: 0.1779 s.
Average split:   1.0000.
Lanes / atom:    8.
Vector width:    32.
Max Mem / Proc:  593.59 MB.
CPU Neighbor:    0.0618 s.
CPU Cast/Pack:   0.2903 s.
CPU Driver_Time: 0.0019 s.
CPU Idle_Time:   0.0209 s.
---------------------------------------------------------------------



---------------------------------------------------------------------
    Device Time Info (average) for kspace: 
---------------------------------------------------------------------
Data Out:        0.0094 s.
Data In:         0.1393 s.
Kernel (map):    0.5384 s.
Kernel (rho):    0.0336 s.
Force interp:    0.2194 s.
Total rho:       0.5815 s.
Total interp:    0.3587 s.
Force copy:      0.1390 s.
Total:           1.0791 s.
CPU Poisson:     1.9308 s.
CPU Data Cast:   0.0814 s.
CPU Idle Time:   2.3717 s.
Max Mem / Proc:  30.75 MB.
---------------------------------------------------------------------

Total wall time: 0:00:28
Intel(R) VTune(TM) Profiler 2022.2.0 collection completed successfully. Use the "aps --report /home/ubuntu/lammps/bench/aps_result_20220420" command to generate textual and HTML reports for the profiling session.
