LAMMPS (7 Jan 2022)
  using 1 OpenMP thread(s) per MPI task
Reading data file ...
  orthogonal box = (-27.5 -38.5 -36.3646) to (27.5 38.5 36.3615)
  3 by 4 by 4 MPI processor grid
  reading atoms ...
  32000 atoms
  reading velocities ...
  32000 velocities
  scanning bonds ...
  4 = max bonds/atom
  scanning angles ...
  8 = max angles/atom
  scanning dihedrals ...
  18 = max dihedrals/atom
  scanning impropers ...
  2 = max impropers/atom
  reading bonds ...
  27723 bonds
  reading angles ...
  40467 angles
  reading dihedrals ...
  56829 dihedrals
  reading impropers ...
  1034 impropers
Finding 1-2 1-3 1-4 neighbors ...
  special bond factors lj:    0        0        0       
  special bond factors coul:  0        0        0       
     4 = max # of 1-2 neighbors
    12 = max # of 1-3 neighbors
    24 = max # of 1-4 neighbors
    26 = max # of special neighbors
  special bonds CPU = 0.007 seconds
  read_data CPU = 0.414 seconds
Replicating atoms ...
  orthogonal box = (-27.5 -38.5 -36.3646) to (137.5 192.5 181.8137)
  3 by 4 by 4 MPI processor grid
  864000 atoms
  748521 bonds
  1092609 angles
  1534383 dihedrals
  27918 impropers
Finding 1-2 1-3 1-4 neighbors ...
  special bond factors lj:    0        0        0       
  special bond factors coul:  0        0        0       
     4 = max # of 1-2 neighbors
    12 = max # of 1-3 neighbors
    24 = max # of 1-4 neighbors
    26 = max # of special neighbors
  special bonds CPU = 0.046 seconds
  replicate CPU = 0.107 seconds
Finding SHAKE clusters ...
   43659 = # of size 2 clusters
   98091 = # of size 3 clusters
   20169 = # of size 4 clusters
  114291 = # of frozen angles
  find clusters CPU = 0.020 seconds

CITE-CITE-CITE-CITE-CITE-CITE-CITE-CITE-CITE-CITE-CITE-CITE-CITE

Your simulation uses code contributions which should be cited:
- GPU package (short-range, long-range and three-body potentials):
The log file lists these citations in BibTeX format.

CITE-CITE-CITE-CITE-CITE-CITE-CITE-CITE-CITE-CITE-CITE-CITE-CITE

PPPM initialization ...
  using 12-bit tables for long-range coulomb (../kspace.cpp:340)
  G vector (1/distance) = 0.32507726
  grid = 200 256 250
  stencil order = 5
  estimated absolute RMS force accuracy = 0.00044709937
  estimated relative force accuracy = 1.3464265e-06
  using single precision MKL FFT
  3d grid and FFT values/proc = 372750 307200

--------------------------------------------------------------------------
- Using acceleration for pppm:
-  with 6 proc(s) per device.
-  Horizontal vector operations: ENABLED
-  Shared memory system: No
--------------------------------------------------------------------------
Device 0: Tesla V100-SXM2-16GB, 80 CUs, 14/16 GB, 1.5 GHZ (Mixed Precision)
Device 1: Tesla V100-SXM2-16GB, 80 CUs, 1.5 GHZ (Mixed Precision)
Device 2: Tesla V100-SXM2-16GB, 80 CUs, 1.5 GHZ (Mixed Precision)
Device 3: Tesla V100-SXM2-16GB, 80 CUs, 1.5 GHZ (Mixed Precision)
Device 4: Tesla V100-SXM2-16GB, 80 CUs, 1.5 GHZ (Mixed Precision)
Device 5: Tesla V100-SXM2-16GB, 80 CUs, 1.5 GHZ (Mixed Precision)
Device 6: Tesla V100-SXM2-16GB, 80 CUs, 1.5 GHZ (Mixed Precision)
Device 7: Tesla V100-SXM2-16GB, 80 CUs, 1.5 GHZ (Mixed Precision)
--------------------------------------------------------------------------

Initializing Device and compiling on process 0...Done.
Initializing Devices 0-7 on core 0...Done.
Initializing Devices 0-7 on core 1...Done.
Initializing Devices 0-7 on core 2...Done.
Initializing Devices 0-7 on core 3...Done.
Initializing Devices 0-7 on core 4...Done.
Initializing Devices 0-7 on core 5...Done.


--------------------------------------------------------------------------
- Using acceleration for lj/charmm/coul/long:
-  with 6 proc(s) per device.
-  Horizontal vector operations: ENABLED
-  Shared memory system: No
--------------------------------------------------------------------------
Device 0: Tesla V100-SXM2-16GB, 80 CUs, 14/16 GB, 1.5 GHZ (Mixed Precision)
Device 1: Tesla V100-SXM2-16GB, 80 CUs, 1.5 GHZ (Mixed Precision)
Device 2: Tesla V100-SXM2-16GB, 80 CUs, 1.5 GHZ (Mixed Precision)
Device 3: Tesla V100-SXM2-16GB, 80 CUs, 1.5 GHZ (Mixed Precision)
Device 4: Tesla V100-SXM2-16GB, 80 CUs, 1.5 GHZ (Mixed Precision)
Device 5: Tesla V100-SXM2-16GB, 80 CUs, 1.5 GHZ (Mixed Precision)
Device 6: Tesla V100-SXM2-16GB, 80 CUs, 1.5 GHZ (Mixed Precision)
Device 7: Tesla V100-SXM2-16GB, 80 CUs, 1.5 GHZ (Mixed Precision)
--------------------------------------------------------------------------

Initializing Device and compiling on process 0...Done.
Initializing Devices 0-7 on core 0...Done.
Initializing Devices 0-7 on core 1...Done.
Initializing Devices 0-7 on core 2...Done.
Initializing Devices 0-7 on core 3...Done.
Initializing Devices 0-7 on core 4...Done.
Initializing Devices 0-7 on core 5...Done.

  generated 2278 of 2278 mixed pair_coeff terms from arithmetic mixing rule
Setting up Verlet run ...
  Unit style    : real
  Current step  : 0
  Time step     : 2
Per MPI rank memory allocation (min/avg/max) = 98.13 | 99.14 | 101.5 Mbytes
---------------- Step        0 ----- CPU =      0.0000 (sec) ----------------
TotEng   =   -684695.4982 KinEng   =    579010.4447 Temp     =       299.0277 
PotEng   =  -1263705.9429 E_bond   =     68525.8383 E_angle  =    294877.1036 
E_dihed  =    140718.2355 E_impro  =      5764.8128 E_vdwl   =    -62312.3570 
E_coul   =   7812612.7547 E_long   =  -9523892.3309 Press    =      -152.9546 
Volume   =   8315865.9045 
---------------- Step       50 ----- CPU =      9.2181 (sec) ----------------
TotEng   =   -683987.7967 KinEng   =    580535.6741 Temp     =       299.8154 
PotEng   =  -1264523.4708 E_bond   =     66735.0897 E_angle  =    292593.1143 
E_dihed  =    141466.0936 E_impro  =      6132.8859 E_vdwl   =    -53797.7956 
E_coul   =   7806653.1139 E_long   =  -9524305.9728 Press    =       234.7862 
Volume   =   8316840.0979 
---------------- Step      100 ----- CPU =     18.2289 (sec) ----------------
TotEng   =   -682767.3304 KinEng   =    582979.1789 Temp     =       301.0773 
PotEng   =  -1265746.5093 E_bond   =     69332.9544 E_angle  =    291105.3750 
E_dihed  =    140361.6480 E_impro  =      5853.2051 E_vdwl   =    -51309.3888 
E_coul   =   7803046.6657 E_long   =  -9524136.9687 Press    =        12.1787 
Volume   =   8319578.3234 
Loop time of 18.229 on 48 procs for 100 steps with 864000 atoms

Performance: 0.948 ns/day, 25.318 hours/ns, 5.486 timesteps/s
95.7% CPU use with 48 MPI tasks x 1 OpenMP threads

MPI task timing breakdown:
Section |  min time  |  avg time  |  max time  |%varavg| %total
---------------------------------------------------------------
Pair    | 0.74283    | 0.95464    | 1.0739     |   6.9 |  5.24
Bond    | 0.52727    | 0.65763    | 0.79838    |  13.6 |  3.61
Kspace  | 10.011     | 10.188     | 10.374     |   4.3 | 55.89
Neigh   | 0.16084    | 0.16426    | 0.16727    |   0.3 |  0.90
Comm    | 0.45879    | 0.77087    | 0.93794    |  15.0 |  4.23
Output  | 0.00038365 | 0.00039938 | 0.00045498 |   0.0 |  0.00
Modify  | 4.4062     | 4.7045     | 5.4795     |  13.9 | 25.81
Other   |            | 0.7892     |            |       |  4.33

Nlocal:          18000 ave       18186 max       17781 min
Histogram: 3 3 3 9 3 9 3 9 3 3
Nghost:        34681.6 ave       34871 max       34417 min
Histogram: 3 3 0 6 6 6 3 9 3 9
Neighs:              0 ave           0 max           0 min
Histogram: 48 0 0 0 0 0 0 0 0 0

Total # of neighbors = 0
Ave neighs/atom = 0
Ave special neighs/atom = 7.431875
Neighbor list builds = 11
Dangerous builds = 0


---------------------------------------------------------------------
      Device Time Info (average): 
---------------------------------------------------------------------
Data Transfer:   0.0118 s.
Neighbor copy:   0.0582 s.
Neighbor build:  0.0732 s.
Force calc:      0.2051 s.
Device Overhead: 0.0698 s.
Average split:   1.0000.
Lanes / atom:    8.
Vector width:    32.
Max Mem / Proc:  86.59 MB.
CPU Neighbor:    0.0582 s.
CPU Cast/Pack:   0.0935 s.
CPU Driver_Time: 0.0034 s.
CPU Idle_Time:   0.0019 s.
---------------------------------------------------------------------



---------------------------------------------------------------------
    Device Time Info (average) for kspace: 
---------------------------------------------------------------------
Data Out:        0.0296 s.
Data In:         0.8779 s.
Kernel (map):    0.1366 s.
Kernel (rho):    0.0290 s.
Force interp:    0.0270 s.
Total rho:       0.1952 s.
Total interp:    0.9048 s.
Force copy:      0.0281 s.
Total:           1.1281 s.
CPU Poisson:     10.1805 s.
CPU Data Cast:   0.0080 s.
CPU Idle Time:   0.0717 s.
Max Mem / Proc:  58.05 MB.
---------------------------------------------------------------------

Total wall time: 0:01:22
Intel(R) VTune(TM) Profiler 2022.2.0 collection completed successfully. Use the "aps --report /home/ubuntu/lammps/bench/aps_result_20220531" command to generate textual and HTML reports for the profiling session.
