LAMMPS (7 Jan 2022)
  using 1 OpenMP thread(s) per MPI task
Reading data file ...
  orthogonal box = (-27.5 -38.5 -36.3646) to (27.5 38.5 36.3615)
  2 by 3 by 3 MPI processor grid
  reading atoms ...
  32000 atoms
  reading velocities ...
  32000 velocities
  scanning bonds ...
  4 = max bonds/atom
  scanning angles ...
  8 = max angles/atom
  scanning dihedrals ...
  18 = max dihedrals/atom
  scanning impropers ...
  2 = max impropers/atom
  reading bonds ...
  27723 bonds
  reading angles ...
  40467 angles
  reading dihedrals ...
  56829 dihedrals
  reading impropers ...
  1034 impropers
Finding 1-2 1-3 1-4 neighbors ...
  special bond factors lj:    0        0        0       
  special bond factors coul:  0        0        0       
     4 = max # of 1-2 neighbors
    12 = max # of 1-3 neighbors
    24 = max # of 1-4 neighbors
    26 = max # of special neighbors
  special bonds CPU = 0.006 seconds
  read_data CPU = 0.390 seconds
Finding SHAKE clusters ...
    1617 = # of size 2 clusters
    3633 = # of size 3 clusters
     747 = # of size 4 clusters
    4233 = # of frozen angles
  find clusters CPU = 0.004 seconds

CITE-CITE-CITE-CITE-CITE-CITE-CITE-CITE-CITE-CITE-CITE-CITE-CITE

Your simulation uses code contributions which should be cited:
- GPU package (short-range, long-range and three-body potentials):
The log file lists these citations in BibTeX format.

CITE-CITE-CITE-CITE-CITE-CITE-CITE-CITE-CITE-CITE-CITE-CITE-CITE

PPPM initialization ...
  using 12-bit tables for long-range coulomb (../kspace.cpp:340)
  G vector (1/distance) = 0.32967033
  grid = 72 90 90
  stencil order = 5
  estimated absolute RMS force accuracy = 0.00033110871
  estimated relative force accuracy = 9.9712404e-07
  using single precision MKL FFT
  3d grid and FFT values/proc = 58867 32400

--------------------------------------------------------------------------
- Using acceleration for pppm:
-  with 3 proc(s) per device.
-  Horizontal vector operations: ENABLED
-  Shared memory system: No
--------------------------------------------------------------------------
Device 0: Tesla V100-SXM2-16GB, 80 CUs, 15/16 GB, 1.5 GHZ (Mixed Precision)
Device 1: Tesla V100-SXM2-16GB, 80 CUs, 1.5 GHZ (Mixed Precision)
Device 2: Tesla V100-SXM2-16GB, 80 CUs, 1.5 GHZ (Mixed Precision)
Device 3: Tesla V100-SXM2-16GB, 80 CUs, 1.5 GHZ (Mixed Precision)
Device 4: Tesla V100-SXM2-16GB, 80 CUs, 1.5 GHZ (Mixed Precision)
Device 5: Tesla V100-SXM2-16GB, 80 CUs, 1.5 GHZ (Mixed Precision)
--------------------------------------------------------------------------

Initializing Device and compiling on process 0...Done.
Initializing Devices 0-5 on core 0...Done.
Initializing Devices 0-5 on core 1...Done.
Initializing Devices 0-5 on core 2...Done.


--------------------------------------------------------------------------
- Using acceleration for lj/charmm/coul/long:
-  with 3 proc(s) per device.
-  Horizontal vector operations: ENABLED
-  Shared memory system: No
--------------------------------------------------------------------------
Device 0: Tesla V100-SXM2-16GB, 80 CUs, 15/16 GB, 1.5 GHZ (Mixed Precision)
Device 1: Tesla V100-SXM2-16GB, 80 CUs, 1.5 GHZ (Mixed Precision)
Device 2: Tesla V100-SXM2-16GB, 80 CUs, 1.5 GHZ (Mixed Precision)
Device 3: Tesla V100-SXM2-16GB, 80 CUs, 1.5 GHZ (Mixed Precision)
Device 4: Tesla V100-SXM2-16GB, 80 CUs, 1.5 GHZ (Mixed Precision)
Device 5: Tesla V100-SXM2-16GB, 80 CUs, 1.5 GHZ (Mixed Precision)
--------------------------------------------------------------------------

Initializing Device and compiling on process 0...Done.
Initializing Devices 0-5 on core 0...Done.
Initializing Devices 0-5 on core 1...Done.
Initializing Devices 0-5 on core 2...Done.

  generated 2278 of 2278 mixed pair_coeff terms from arithmetic mixing rule
Setting up Verlet run ...
  Unit style    : real
  Current step  : 0
  Time step     : 2
Per MPI rank memory allocation (min/avg/max) = 21.47 | 21.59 | 21.88 Mbytes
---------------- Step        0 ----- CPU =      0.0000 (sec) ----------------
TotEng   =    -25359.0977 KinEng   =     21444.8313 Temp     =       299.0397 
PotEng   =    -46803.9290 E_bond   =      2537.9940 E_angle  =     10921.3742 
E_dihed  =      5211.7865 E_impro  =       213.5116 E_vdwl   =     -2307.8635 
E_coul   =    294294.0666 E_long   =   -357674.7984 Press    =      -152.9661 
Volume   =    307995.0335 
---------------- Step       50 ----- CPU =      0.7043 (sec) ----------------
TotEng   =    -25333.6607 KinEng   =     21500.8940 Temp     =       299.8214 
PotEng   =    -46834.5547 E_bond   =      2471.6326 E_angle  =     10836.6403 
E_dihed  =      5239.4606 E_impro  =       227.1404 E_vdwl   =     -1992.5566 
E_coul   =    294073.9454 E_long   =   -357690.8174 Press    =       234.6845 
Volume   =    308031.1064 
---------------- Step      100 ----- CPU =      1.3525 (sec) ----------------
TotEng   =    -25290.0484 KinEng   =     21590.6686 Temp     =       301.0733 
PotEng   =    -46880.7170 E_bond   =      2567.7681 E_angle  =     10781.2386 
E_dihed  =      5198.4918 E_impro  =       216.7766 E_vdwl   =     -1900.4345 
E_coul   =    293940.1125 E_long   =   -357684.6702 Press    =        11.9351 
Volume   =    308132.4393 
---------------- Step      150 ----- CPU =      2.0292 (sec) ----------------
TotEng   =    -25258.0459 KinEng   =     21543.4844 Temp     =       300.4154 
PotEng   =    -46801.5303 E_bond   =      2555.8888 E_angle  =     10855.4662 
E_dihed  =      5263.9553 E_impro  =       203.1506 E_vdwl   =     -2069.5108 
E_coul   =    294057.2375 E_long   =   -357667.7178 Press    =       242.0795 
Volume   =    308516.0646 
---------------- Step      200 ----- CPU =      2.6759 (sec) ----------------
TotEng   =    -25058.6834 KinEng   =     21486.0789 Temp     =       299.6149 
PotEng   =    -46544.7622 E_bond   =      2492.2811 E_angle  =     11072.5750 
E_dihed  =      5224.5033 E_impro  =       232.2282 E_vdwl   =     -2111.0838 
E_coul   =    294236.1337 E_long   =   -357691.3997 Press    =       108.8122 
Volume   =    308993.6782 
---------------- Step      250 ----- CPU =      3.3540 (sec) ----------------
TotEng   =    -24886.3765 KinEng   =     21595.5980 Temp     =       301.1421 
PotEng   =    -46481.9745 E_bond   =      2554.1489 E_angle  =     11113.6133 
E_dihed  =      5250.8198 E_impro  =       221.9922 E_vdwl   =     -2169.4575 
E_coul   =    294228.5429 E_long   =   -357681.6342 Press    =      -160.7630 
Volume   =    309421.6990 
---------------- Step      300 ----- CPU =      4.0097 (sec) ----------------
TotEng   =    -24887.0815 KinEng   =     21595.8223 Temp     =       301.1452 
PotEng   =    -46482.9038 E_bond   =      2569.3127 E_angle  =     10908.5084 
E_dihed  =      5218.8897 E_impro  =       226.4639 E_vdwl   =     -2171.3712 
E_coul   =    294422.4178 E_long   =   -357657.1251 Press    =      -372.0853 
Volume   =    309818.1143 
---------------- Step      350 ----- CPU =      4.6757 (sec) ----------------
TotEng   =    -25096.0502 KinEng   =     21596.0088 Temp     =       301.1478 
PotEng   =    -46692.0590 E_bond   =      2585.6121 E_angle  =     10951.6908 
E_dihed  =      5198.3061 E_impro  =       209.0064 E_vdwl   =     -2122.5534 
E_coul   =    294164.8393 E_long   =   -357678.9604 Press    =      -371.0049 
Volume   =    310109.3562 
---------------- Step      400 ----- CPU =      5.3380 (sec) ----------------
TotEng   =    -25380.8604 KinEng   =     21415.4669 Temp     =       298.6302 
PotEng   =    -46796.3274 E_bond   =      2526.1529 E_angle  =     10960.3636 
E_dihed  =      5179.2618 E_impro  =       221.6445 E_vdwl   =     -2097.6876 
E_coul   =    294089.3744 E_long   =   -357675.4370 Press    =       206.3858 
Volume   =    310212.0025 
---------------- Step      450 ----- CPU =      5.9955 (sec) ----------------
TotEng   =    -25469.5736 KinEng   =     21381.3971 Temp     =       298.1551 
PotEng   =    -46850.9707 E_bond   =      2522.4967 E_angle  =     10826.2312 
E_dihed  =      5294.9290 E_impro  =       219.6640 E_vdwl   =     -2231.1570 
E_coul   =    294203.0935 E_long   =   -357686.2282 Press    =       119.8422 
Volume   =    310172.2730 
---------------- Step      500 ----- CPU =      6.6437 (sec) ----------------
TotEng   =    -25135.2598 KinEng   =     21400.6815 Temp     =       298.4240 
PotEng   =    -46535.9413 E_bond   =      2600.7544 E_angle  =     10966.2839 
E_dihed  =      5253.6241 E_impro  =       219.9849 E_vdwl   =     -2273.8719 
E_coul   =    294352.2587 E_long   =   -357654.9754 Press    =      -488.3392 
Volume   =    310116.4346 
---------------- Step      550 ----- CPU =      7.3180 (sec) ----------------
TotEng   =    -24763.6524 KinEng   =     21753.1732 Temp     =       303.3394 
PotEng   =    -46516.8256 E_bond   =      2535.1920 E_angle  =     10957.5600 
E_dihed  =      5249.7912 E_impro  =       233.5531 E_vdwl   =     -2070.7374 
E_coul   =    294250.1982 E_long   =   -357672.3828 Press    =       358.5908 
Volume   =    309959.3248 
---------------- Step      600 ----- CPU =      7.9824 (sec) ----------------
TotEng   =    -24682.1148 KinEng   =     21804.0606 Temp     =       304.0490 
PotEng   =    -46486.1754 E_bond   =      2582.6749 E_angle  =     11098.6301 
E_dihed  =      5238.3090 E_impro  =       219.6638 E_vdwl   =     -2262.9829 
E_coul   =    294328.7361 E_long   =   -357691.2063 Press    =       -46.0024 
Volume   =    309961.6746 
Loop time of 7.98251 on 18 procs for 600 steps with 32000 atoms

Performance: 12.988 ns/day, 1.848 hours/ns, 75.164 timesteps/s
97.8% CPU use with 18 MPI tasks x 1 OpenMP threads

MPI task timing breakdown:
Section |  min time  |  avg time  |  max time  |%varavg| %total
---------------------------------------------------------------
Pair    | 0.48495    | 0.63842    | 0.82725    |  13.1 |  8.00
Bond    | 0.24123    | 0.44193    | 0.72104    |  26.9 |  5.54
Kspace  | 3.0776     | 3.3467     | 3.5504     |   9.6 | 41.93
Neigh   | 0.050816   | 0.051253   | 0.052002   |   0.1 |  0.64
Comm    | 0.28675    | 0.32243    | 0.33828    |   2.0 |  4.04
Output  | 0.00097164 | 0.0010004  | 0.0013219  |   0.2 |  0.01
Modify  | 2.9309     | 3.0605     | 3.2452     |   5.5 | 38.34
Other   |            | 0.1203     |            |       |  1.51

Nlocal:        1777.78 ave        1840 max        1719 min
Histogram: 3 1 3 0 2 3 1 0 3 2
Nghost:        10985.6 ave       11180 max       10855 min
Histogram: 4 6 0 1 1 0 0 2 2 2
Neighs:              0 ave           0 max           0 min
Histogram: 18 0 0 0 0 0 0 0 0 0

Total # of neighbors = 0
Ave neighs/atom = 0
Ave special neighs/atom = 7.431875
Neighbor list builds = 65
Dangerous builds = 0


---------------------------------------------------------------------
      Device Time Info (average): 
---------------------------------------------------------------------
Data Transfer:   0.0208 s.
Neighbor copy:   0.0367 s.
Neighbor build:  0.1339 s.
Force calc:      0.3679 s.
Device Overhead: 0.2136 s.
Average split:   1.0000.
Lanes / atom:    8.
Vector width:    32.
Max Mem / Proc:  9.01 MB.
CPU Neighbor:    0.0277 s.
CPU Cast/Pack:   0.0621 s.
CPU Driver_Time: 0.0172 s.
CPU Idle_Time:   0.0036 s.
---------------------------------------------------------------------



---------------------------------------------------------------------
    Device Time Info (average) for kspace: 
---------------------------------------------------------------------
Data Out:        0.0271 s.
Data In:         0.3428 s.
Kernel (map):    0.2282 s.
Kernel (rho):    0.0445 s.
Force interp:    0.1433 s.
Total rho:       0.2999 s.
Total interp:    0.4861 s.
Force copy:      0.0191 s.
Total:           0.8050 s.
CPU Poisson:     3.0947 s.
CPU Data Cast:   0.0039 s.
CPU Idle Time:   0.1933 s.
Max Mem / Proc:  7.95 MB.
---------------------------------------------------------------------

Total wall time: 0:00:30
Intel(R) VTune(TM) Profiler 2022.2.0 collection completed successfully. Use the "aps --report /home/ubuntu/lammps/bench/aps_result_20220531" command to generate textual and HTML reports for the profiling session.
