LAMMPS (7 Jan 2022)
  using 1 OpenMP thread(s) per MPI task
Reading data file ...
  orthogonal box = (-27.5 -38.5 -36.3646) to (27.5 38.5 36.3615)
  2 by 3 by 3 MPI processor grid
  reading atoms ...
  32000 atoms
  reading velocities ...
  32000 velocities
  scanning bonds ...
  4 = max bonds/atom
  scanning angles ...
  8 = max angles/atom
  scanning dihedrals ...
  18 = max dihedrals/atom
  scanning impropers ...
  2 = max impropers/atom
  reading bonds ...
  27723 bonds
  reading angles ...
  40467 angles
  reading dihedrals ...
  56829 dihedrals
  reading impropers ...
  1034 impropers
Finding 1-2 1-3 1-4 neighbors ...
  special bond factors lj:    0        0        0       
  special bond factors coul:  0        0        0       
     4 = max # of 1-2 neighbors
    12 = max # of 1-3 neighbors
    24 = max # of 1-4 neighbors
    26 = max # of special neighbors
  special bonds CPU = 0.006 seconds
  read_data CPU = 0.391 seconds
Finding SHAKE clusters ...
    1617 = # of size 2 clusters
    3633 = # of size 3 clusters
     747 = # of size 4 clusters
    4233 = # of frozen angles
  find clusters CPU = 0.004 seconds

CITE-CITE-CITE-CITE-CITE-CITE-CITE-CITE-CITE-CITE-CITE-CITE-CITE

Your simulation uses code contributions which should be cited:
- GPU package (short-range, long-range and three-body potentials):
The log file lists these citations in BibTeX format.

CITE-CITE-CITE-CITE-CITE-CITE-CITE-CITE-CITE-CITE-CITE-CITE-CITE

PPPM initialization ...
  using 12-bit tables for long-range coulomb (../kspace.cpp:340)
  G vector (1/distance) = 0.29123956
  grid = 45 54 50
  stencil order = 5
  estimated absolute RMS force accuracy = 0.0035990372
  estimated relative force accuracy = 1.0838394e-05
  using single precision MKL FFT
  3d grid and FFT values/proc = 16675 7290

--------------------------------------------------------------------------
- Using acceleration for pppm:
-  with 3 proc(s) per device.
-  Horizontal vector operations: ENABLED
-  Shared memory system: No
--------------------------------------------------------------------------
Device 0: Tesla V100-SXM2-16GB, 80 CUs, 15/16 GB, 1.5 GHZ (Mixed Precision)
Device 1: Tesla V100-SXM2-16GB, 80 CUs, 1.5 GHZ (Mixed Precision)
Device 2: Tesla V100-SXM2-16GB, 80 CUs, 1.5 GHZ (Mixed Precision)
Device 3: Tesla V100-SXM2-16GB, 80 CUs, 1.5 GHZ (Mixed Precision)
Device 4: Tesla V100-SXM2-16GB, 80 CUs, 1.5 GHZ (Mixed Precision)
Device 5: Tesla V100-SXM2-16GB, 80 CUs, 1.5 GHZ (Mixed Precision)
--------------------------------------------------------------------------

Initializing Device and compiling on process 0...Done.
Initializing Devices 0-5 on core 0...Done.
Initializing Devices 0-5 on core 1...Done.
Initializing Devices 0-5 on core 2...Done.


--------------------------------------------------------------------------
- Using acceleration for lj/charmm/coul/long:
-  with 3 proc(s) per device.
-  Horizontal vector operations: ENABLED
-  Shared memory system: No
--------------------------------------------------------------------------
Device 0: Tesla V100-SXM2-16GB, 80 CUs, 15/16 GB, 1.5 GHZ (Mixed Precision)
Device 1: Tesla V100-SXM2-16GB, 80 CUs, 1.5 GHZ (Mixed Precision)
Device 2: Tesla V100-SXM2-16GB, 80 CUs, 1.5 GHZ (Mixed Precision)
Device 3: Tesla V100-SXM2-16GB, 80 CUs, 1.5 GHZ (Mixed Precision)
Device 4: Tesla V100-SXM2-16GB, 80 CUs, 1.5 GHZ (Mixed Precision)
Device 5: Tesla V100-SXM2-16GB, 80 CUs, 1.5 GHZ (Mixed Precision)
--------------------------------------------------------------------------

Initializing Device and compiling on process 0...Done.
Initializing Devices 0-5 on core 0...Done.
Initializing Devices 0-5 on core 1...Done.
Initializing Devices 0-5 on core 2...Done.

  generated 2278 of 2278 mixed pair_coeff terms from arithmetic mixing rule
Setting up Verlet run ...
  Unit style    : real
  Current step  : 0
  Time step     : 2
Per MPI rank memory allocation (min/avg/max) = 18.88 | 19.04 | 19.28 Mbytes
---------------- Step        0 ----- CPU =      0.0000 (sec) ----------------
TotEng   =    -25358.7422 KinEng   =     21444.8313 Temp     =       299.0397 
PotEng   =    -46803.5735 E_bond   =      2537.9940 E_angle  =     10921.3742 
E_dihed  =      5211.7865 E_impro  =       213.5116 E_vdwl   =     -2307.8635 
E_coul   =    252888.7510 E_long   =   -316269.1272 Press    =      -152.7826 
Volume   =    307995.0335 
---------------- Step       50 ----- CPU =      0.3141 (sec) ----------------
TotEng   =    -25333.3243 KinEng   =     21500.9260 Temp     =       299.8219 
PotEng   =    -46834.2503 E_bond   =      2471.6404 E_angle  =     10836.6047 
E_dihed  =      5239.4719 E_impro  =       227.1338 E_vdwl   =     -1992.5852 
E_coul   =    252663.4903 E_long   =   -316280.0062 Press    =       234.9361 
Volume   =    308031.0998 
---------------- Step      100 ----- CPU =      0.6380 (sec) ----------------
TotEng   =    -25289.9457 KinEng   =     21588.3552 Temp     =       301.0411 
PotEng   =    -46878.3009 E_bond   =      2567.8200 E_angle  =     10781.4116 
E_dihed  =      5198.5505 E_impro  =       216.7999 E_vdwl   =     -1900.6533 
E_coul   =    252531.4784 E_long   =   -316273.7081 Press    =        12.3257 
Volume   =    308132.3435 
---------------- Step      150 ----- CPU =      0.9251 (sec) ----------------
TotEng   =    -25257.5752 KinEng   =     21552.3172 Temp     =       300.5385 
PotEng   =    -46809.8925 E_bond   =      2555.7215 E_angle  =     10856.1425 
E_dihed  =      5264.1209 E_impro  =       203.0459 E_vdwl   =     -2061.2375 
E_coul   =    252630.8291 E_long   =   -316258.5149 Press    =       248.1167 
Volume   =    308514.1747 
---------------- Step      200 ----- CPU =      1.2072 (sec) ----------------
TotEng   =    -25061.4115 KinEng   =     21489.4292 Temp     =       299.6616 
PotEng   =    -46550.8407 E_bond   =      2492.2095 E_angle  =     11073.3813 
E_dihed  =      5224.5334 E_impro  =       232.2817 E_vdwl   =     -2120.4199 
E_coul   =    252827.5851 E_long   =   -316280.4116 Press    =        89.9263 
Volume   =    308993.3812 
---------------- Step      250 ----- CPU =      1.4920 (sec) ----------------
TotEng   =    -24880.8128 KinEng   =     21547.0910 Temp     =       300.4656 
PotEng   =    -46427.9038 E_bond   =      2555.8067 E_angle  =     11112.1986 
E_dihed  =      5253.2182 E_impro  =       221.0456 E_vdwl   =     -2193.4058 
E_coul   =    252898.6790 E_long   =   -316275.4460 Press    =      -167.0013 
Volume   =    309415.6371 
---------------- Step      300 ----- CPU =      1.7771 (sec) ----------------
TotEng   =    -24878.3490 KinEng   =     21558.0514 Temp     =       300.6185 
PotEng   =    -46436.4003 E_bond   =      2563.5840 E_angle  =     10922.1340 
E_dihed  =      5229.7185 E_impro  =       225.2354 E_vdwl   =     -2132.4209 
E_coul   =    253013.8958 E_long   =   -316258.5472 Press    =      -363.3755 
Volume   =    309775.3163 
---------------- Step      350 ----- CPU =      2.0595 (sec) ----------------
TotEng   =    -25046.3940 KinEng   =     21544.3140 Temp     =       300.4269 
PotEng   =    -46590.7080 E_bond   =      2592.6528 E_angle  =     11017.5055 
E_dihed  =      5221.6716 E_impro  =       207.1171 E_vdwl   =     -2213.7340 
E_coul   =    252845.7143 E_long   =   -316261.6352 Press    =      -436.9009 
Volume   =    310056.1134 
---------------- Step      400 ----- CPU =      2.3379 (sec) ----------------
TotEng   =    -25231.8212 KinEng   =     21406.6111 Temp     =       298.5067 
PotEng   =    -46638.4323 E_bond   =      2540.0334 E_angle  =     11003.0467 
E_dihed  =      5172.0500 E_impro  =       217.0859 E_vdwl   =     -2247.6908 
E_coul   =    252946.9624 E_long   =   -316269.9198 Press    =       152.6135 
Volume   =    310142.1058 
---------------- Step      450 ----- CPU =      2.6279 (sec) ----------------
TotEng   =    -25269.6115 KinEng   =     21452.9887 Temp     =       299.1534 
PotEng   =    -46722.6003 E_bond   =      2520.5190 E_angle  =     10879.0360 
E_dihed  =      5275.2035 E_impro  =       220.7993 E_vdwl   =     -2216.9184 
E_coul   =    252869.2449 E_long   =   -316270.4846 Press    =       229.9787 
Volume   =    310088.7045 
---------------- Step      500 ----- CPU =      2.9234 (sec) ----------------
TotEng   =    -25100.6790 KinEng   =     21424.7704 Temp     =       298.7599 
PotEng   =    -46525.4494 E_bond   =      2607.0437 E_angle  =     10936.8286 
E_dihed  =      5220.7742 E_impro  =       211.6673 E_vdwl   =     -2174.0401 
E_coul   =    252929.2146 E_long   =   -316256.9377 Press    =      -291.0624 
Volume   =    309954.1439 
---------------- Step      550 ----- CPU =      3.2049 (sec) ----------------
TotEng   =    -24870.4425 KinEng   =     21651.6111 Temp     =       301.9231 
PotEng   =    -46522.0536 E_bond   =      2535.6457 E_angle  =     10956.5251 
E_dihed  =      5221.9863 E_impro  =       237.4417 E_vdwl   =     -2011.4446 
E_coul   =    252809.9264 E_long   =   -316272.1342 Press    =       277.6912 
Volume   =    309841.3348 
---------------- Step      600 ----- CPU =      3.4937 (sec) ----------------
TotEng   =    -24838.3643 KinEng   =     21592.0435 Temp     =       301.0925 
PotEng   =    -46430.4077 E_bond   =      2558.5011 E_angle  =     11057.3392 
E_dihed  =      5241.2493 E_impro  =       233.8071 E_vdwl   =     -2219.0082 
E_coul   =    252966.7873 E_long   =   -316269.0834 Press    =      -236.2038 
Volume   =    309848.1385 
Loop time of 3.49385 on 18 procs for 600 steps with 32000 atoms

Performance: 29.675 ns/day, 0.809 hours/ns, 171.730 timesteps/s
96.6% CPU use with 18 MPI tasks x 1 OpenMP threads

MPI task timing breakdown:
Section |  min time  |  avg time  |  max time  |%varavg| %total
---------------------------------------------------------------
Pair    | 0.31149    | 0.36521    | 0.45662    |   6.2 | 10.45
Bond    | 0.23057    | 0.42872    | 0.70508    |  26.8 | 12.27
Kspace  | 1.0167     | 1.2885     | 1.4927     |  15.2 | 36.88
Neigh   | 0.045532   | 0.04616    | 0.046732   |   0.1 |  1.32
Comm    | 0.23252    | 0.25617    | 0.3321     |   7.0 |  7.33
Output  | 0.00086483 | 0.00089207 | 0.0011969  |   0.0 |  0.03
Modify  | 0.83667    | 1.0331     | 1.1302     |   8.8 | 29.57
Other   |            | 0.07508    |            |       |  2.15

Nlocal:        1777.78 ave        1846 max        1709 min
Histogram: 1 2 2 3 0 3 1 4 1 1
Nghost:        10987.7 ave       11184 max       10825 min
Histogram: 1 4 1 4 2 0 0 1 3 2
Neighs:              0 ave           0 max           0 min
Histogram: 18 0 0 0 0 0 0 0 0 0

Total # of neighbors = 0
Ave neighs/atom = 0
Ave special neighs/atom = 7.431875
Neighbor list builds = 66
Dangerous builds = 0


---------------------------------------------------------------------
      Device Time Info (average): 
---------------------------------------------------------------------
Data Transfer:   0.0198 s.
Neighbor copy:   0.0353 s.
Neighbor build:  0.1155 s.
Force calc:      0.3467 s.
Device Overhead: 0.2134 s.
Average split:   1.0000.
Lanes / atom:    8.
Vector width:    32.
Max Mem / Proc:  9.01 MB.
CPU Neighbor:    0.0279 s.
CPU Cast/Pack:   0.0562 s.
CPU Driver_Time: 0.0171 s.
CPU Idle_Time:   0.0030 s.
---------------------------------------------------------------------



---------------------------------------------------------------------
    Device Time Info (average) for kspace: 
---------------------------------------------------------------------
Data Out:        0.0149 s.
Data In:         0.1031 s.
Kernel (map):    0.2017 s.
Kernel (rho):    0.0429 s.
Force interp:    0.1130 s.
Total rho:       0.2595 s.
Total interp:    0.2161 s.
Force copy:      0.0138 s.
Total:           0.4894 s.
CPU Poisson:     1.0824 s.
CPU Data Cast:   0.0043 s.
CPU Idle Time:   0.1610 s.
Max Mem / Proc:  2.06 MB.
---------------------------------------------------------------------

Total wall time: 0:00:26
Intel(R) VTune(TM) Profiler 2022.2.0 collection completed successfully. Use the "aps --report /home/ubuntu/lammps/bench/aps_result_20220531" command to generate textual and HTML reports for the profiling session.
