LAMMPS (7 Jan 2022)
  using 1 OpenMP thread(s) per MPI task
New timer settings: style=full  mode=nosync  timeout=off
Reading data file ...
  orthogonal box = (-27.5 -38.5 -36.3646) to (27.5 38.5 36.3615)
  3 by 4 by 4 MPI processor grid
  reading atoms ...
  32000 atoms
  reading velocities ...
  32000 velocities
  scanning bonds ...
  4 = max bonds/atom
  scanning angles ...
  8 = max angles/atom
  scanning dihedrals ...
  18 = max dihedrals/atom
  scanning impropers ...
  2 = max impropers/atom
  reading bonds ...
  27723 bonds
  reading angles ...
  40467 angles
  reading dihedrals ...
  56829 dihedrals
  reading impropers ...
  1034 impropers
Finding 1-2 1-3 1-4 neighbors ...
  special bond factors lj:    0        0        0       
  special bond factors coul:  0        0        0       
     4 = max # of 1-2 neighbors
    12 = max # of 1-3 neighbors
    24 = max # of 1-4 neighbors
    26 = max # of special neighbors
  special bonds CPU = 0.006 seconds
  read_data CPU = 0.339 seconds
Replicating atoms ...
  orthogonal box = (-27.5 -38.5 -36.3646) to (82.5 115.5 109.0876)
  3 by 4 by 4 MPI processor grid
  256000 atoms
  221784 bonds
  323736 angles
  454632 dihedrals
  8272 impropers
Finding 1-2 1-3 1-4 neighbors ...
  special bond factors lj:    0        0        0       
  special bond factors coul:  0        0        0       
     4 = max # of 1-2 neighbors
    12 = max # of 1-3 neighbors
    24 = max # of 1-4 neighbors
    26 = max # of special neighbors
  special bonds CPU = 0.017 seconds
  replicate CPU = 0.055 seconds
Finding SHAKE clusters ...
   12936 = # of size 2 clusters
   29064 = # of size 3 clusters
    5976 = # of size 4 clusters
   33864 = # of frozen angles
  find clusters CPU = 0.007 seconds

CITE-CITE-CITE-CITE-CITE-CITE-CITE-CITE-CITE-CITE-CITE-CITE-CITE

Your simulation uses code contributions which should be cited:
- GPU package (short-range, long-range and three-body potentials):
The log file lists these citations in BibTeX format.

CITE-CITE-CITE-CITE-CITE-CITE-CITE-CITE-CITE-CITE-CITE-CITE-CITE

PPPM initialization ...
  using 12-bit tables for long-range coulomb (../kspace.cpp:340)
  G vector (1/distance) = 0.24587501
  grid = 48 64 60
  stencil order = 5
  estimated absolute RMS force accuracy = 0.041154918
  estimated relative force accuracy = 0.00012393681
  using single precision MKL FFT
  3d grid and FFT values/proc = 8820 6144

--------------------------------------------------------------------------
- Using acceleration for pppm:
-  with 6 proc(s) per device.
-  Horizontal vector operations: ENABLED
-  Shared memory system: No
--------------------------------------------------------------------------
Device 0: Tesla V100-SXM2-16GB, 80 CUs, 14/16 GB, 1.5 GHZ (Mixed Precision)
Device 1: Tesla V100-SXM2-16GB, 80 CUs, 1.5 GHZ (Mixed Precision)
Device 2: Tesla V100-SXM2-16GB, 80 CUs, 1.5 GHZ (Mixed Precision)
Device 3: Tesla V100-SXM2-16GB, 80 CUs, 1.5 GHZ (Mixed Precision)
Device 4: Tesla V100-SXM2-16GB, 80 CUs, 1.5 GHZ (Mixed Precision)
Device 5: Tesla V100-SXM2-16GB, 80 CUs, 1.5 GHZ (Mixed Precision)
Device 6: Tesla V100-SXM2-16GB, 80 CUs, 1.5 GHZ (Mixed Precision)
Device 7: Tesla V100-SXM2-16GB, 80 CUs, 1.5 GHZ (Mixed Precision)
--------------------------------------------------------------------------

Initializing Device and compiling on process 0...Done.
Initializing Devices 0-7 on core 0...Done.
Initializing Devices 0-7 on core 1...Done.
Initializing Devices 0-7 on core 2...Done.
Initializing Devices 0-7 on core 3...Done.
Initializing Devices 0-7 on core 4...Done.
Initializing Devices 0-7 on core 5...Done.


--------------------------------------------------------------------------
- Using acceleration for lj/charmm/coul/long:
-  with 6 proc(s) per device.
-  Horizontal vector operations: ENABLED
-  Shared memory system: No
--------------------------------------------------------------------------
Device 0: Tesla V100-SXM2-16GB, 80 CUs, 14/16 GB, 1.5 GHZ (Mixed Precision)
Device 1: Tesla V100-SXM2-16GB, 80 CUs, 1.5 GHZ (Mixed Precision)
Device 2: Tesla V100-SXM2-16GB, 80 CUs, 1.5 GHZ (Mixed Precision)
Device 3: Tesla V100-SXM2-16GB, 80 CUs, 1.5 GHZ (Mixed Precision)
Device 4: Tesla V100-SXM2-16GB, 80 CUs, 1.5 GHZ (Mixed Precision)
Device 5: Tesla V100-SXM2-16GB, 80 CUs, 1.5 GHZ (Mixed Precision)
Device 6: Tesla V100-SXM2-16GB, 80 CUs, 1.5 GHZ (Mixed Precision)
Device 7: Tesla V100-SXM2-16GB, 80 CUs, 1.5 GHZ (Mixed Precision)
--------------------------------------------------------------------------

Initializing Device and compiling on process 0...Done.
Initializing Devices 0-7 on core 0...Done.
Initializing Devices 0-7 on core 1...Done.
Initializing Devices 0-7 on core 2...Done.
Initializing Devices 0-7 on core 3...Done.
Initializing Devices 0-7 on core 4...Done.
Initializing Devices 0-7 on core 5...Done.

  generated 2278 of 2278 mixed pair_coeff terms from arithmetic mixing rule
Setting up Verlet run ...
  Unit style    : real
  Current step  : 0
  Time step     : 2
Per MPI rank memory allocation (min/avg/max) = 36.51 | 36.56 | 36.69 Mbytes
---------------- Step        0 ----- CPU =      0.0000 (sec) ----------------
TotEng   =   -202846.6815 KinEng   =    171558.6503 Temp     =       299.0288 
PotEng   =   -374405.3317 E_bond   =     20303.9521 E_angle  =     87370.9937 
E_dihed  =     41694.2920 E_impro  =      1708.0927 E_vdwl   =    -18462.9051 
E_coul   =   1630560.2223 E_long   =  -2137579.9794 Press    =      -148.7798 
Volume   =   2463960.2680 
---------------- Step       50 ----- CPU =      0.4719 (sec) ----------------
TotEng   =   -202633.3740 KinEng   =    172010.7461 Temp     =       299.8168 
PotEng   =   -374644.1200 E_bond   =     19774.3529 E_angle  =     86693.5103 
E_dihed  =     41917.8102 E_impro  =      1817.0671 E_vdwl   =    -15943.3738 
E_coul   =   1628731.2164 E_long   =  -2137634.7032 Press    =       238.5810 
Volume   =   2464254.6364 
---------------- Step      100 ----- CPU =      0.9795 (sec) ----------------
TotEng   =   -202315.0280 KinEng   =    172724.4169 Temp     =       301.0607 
PotEng   =   -375039.4449 E_bond   =     20545.2202 E_angle  =     86257.3333 
E_dihed  =     41587.6732 E_impro  =      1733.5573 E_vdwl   =    -15187.8684 
E_coul   =   1627614.4012 E_long   =  -2137589.7617 Press    =        10.9156 
Volume   =   2465078.7666 
Loop time of 0.979556 on 48 procs for 100 steps with 256000 atoms

Performance: 17.641 ns/day, 1.360 hours/ns, 102.087 timesteps/s
94.9% CPU use with 48 MPI tasks x 1 OpenMP threads

MPI task timing breakdown:
Section |  min time  |  avg time  |  max time  |%varavg|  %CPU | %total
-----------------------------------------------------------------------
Pair    | 0.080723   | 0.095507   | 0.11486    |   2.7 |  96.7 |  9.75
Bond    | 0.17026    | 0.19745    | 0.21605    |   2.7 |  98.3 | 20.16
Kspace  | 0.21842    | 0.24458    | 0.27877    |   3.2 |  92.4 | 24.97
Neigh   | 0.032521   | 0.03352    | 0.035353   |   0.3 |  98.5 |  3.42
Comm    | 0.097083   | 0.10981    | 0.1239     |   2.8 |  93.2 | 11.21
Output  | 0.00020788 | 0.00021181 | 0.00026209 |   0.0 | 100.0 |  0.02
Modify  | 0.23937    | 0.26422    | 0.30446    |   3.8 |  93.9 | 26.97
Other   |            | 0.03425    |            |       |       |  3.50

Nlocal:        5333.33 ave        5452 max        5268 min
Histogram: 12 8 8 4 4 0 4 0 0 8
Nghost:        18256.2 ave       18324 max       18178 min
Histogram: 4 4 0 8 8 0 4 16 0 4
Neighs:              0 ave           0 max           0 min
Histogram: 48 0 0 0 0 0 0 0 0 0

Total # of neighbors = 0
Ave neighs/atom = 0
Ave special neighs/atom = 7.431875
Neighbor list builds = 11
Dangerous builds = 0


---------------------------------------------------------------------
      Device Time Info (average): 
---------------------------------------------------------------------
Data Transfer:   0.0048 s.
Neighbor copy:   0.0187 s.
Neighbor build:  0.0415 s.
Force calc:      0.1241 s.
Device Overhead: 0.0625 s.
Average split:   1.0000.
Lanes / atom:    8.
Vector width:    32.
Max Mem / Proc:  25.90 MB.
CPU Neighbor:    0.0272 s.
CPU Cast/Pack:   0.0295 s.
CPU Driver_Time: 0.0016 s.
CPU Idle_Time:   0.0007 s.
---------------------------------------------------------------------



---------------------------------------------------------------------
    Device Time Info (average) for kspace: 
---------------------------------------------------------------------
Data Out:        0.0023 s.
Data In:         0.0159 s.
Kernel (map):    0.0831 s.
Kernel (rho):    0.0134 s.
Force interp:    0.0343 s.
Total rho:       0.0988 s.
Total interp:    0.0502 s.
Force copy:      0.0037 s.
Total:           0.1527 s.
CPU Poisson:     0.1873 s.
CPU Data Cast:   0.0027 s.
CPU Idle Time:   0.0577 s.
Max Mem / Proc:  1.44 MB.
---------------------------------------------------------------------

Total wall time: 0:00:29
Intel(R) VTune(TM) Profiler 2022.2.0 collection completed successfully. Use the "aps --report /home/ubuntu/lammps/bench/aps_result_20220420" command to generate textual and HTML reports for the profiling session.
