LAMMPS (7 Jan 2022)
  using 1 OpenMP thread(s) per MPI task
Reading data file ...
  orthogonal box = (-27.5 -38.5 -36.3646) to (27.5 38.5 36.3615)
  1 by 3 by 2 MPI processor grid
  reading atoms ...
  32000 atoms
  reading velocities ...
  32000 velocities
  scanning bonds ...
  4 = max bonds/atom
  scanning angles ...
  8 = max angles/atom
  scanning dihedrals ...
  18 = max dihedrals/atom
  scanning impropers ...
  2 = max impropers/atom
  reading bonds ...
  27723 bonds
  reading angles ...
  40467 angles
  reading dihedrals ...
  56829 dihedrals
  reading impropers ...
  1034 impropers
Finding 1-2 1-3 1-4 neighbors ...
  special bond factors lj:    0        0        0       
  special bond factors coul:  0        0        0       
     4 = max # of 1-2 neighbors
    12 = max # of 1-3 neighbors
    24 = max # of 1-4 neighbors
    26 = max # of special neighbors
  special bonds CPU = 0.006 seconds
  read_data CPU = 0.393 seconds
Finding SHAKE clusters ...
    1617 = # of size 2 clusters
    3633 = # of size 3 clusters
     747 = # of size 4 clusters
    4233 = # of frozen angles
  find clusters CPU = 0.003 seconds

CITE-CITE-CITE-CITE-CITE-CITE-CITE-CITE-CITE-CITE-CITE-CITE-CITE

Your simulation uses code contributions which should be cited:
- GPU package (short-range, long-range and three-body potentials):
The log file lists these citations in BibTeX format.

CITE-CITE-CITE-CITE-CITE-CITE-CITE-CITE-CITE-CITE-CITE-CITE-CITE

PPPM initialization ...
  using 12-bit tables for long-range coulomb (../kspace.cpp:340)
  G vector (1/distance) = 0.29123956
  grid = 45 54 50
  stencil order = 5
  estimated absolute RMS force accuracy = 0.0035990372
  estimated relative force accuracy = 1.0838394e-05
  using single precision MKL FFT
  3d grid and FFT values/proc = 41600 21870

--------------------------------------------------------------------------
- Using acceleration for pppm:
-  with 6 proc(s) per device.
-  Horizontal vector operations: ENABLED
-  Shared memory system: No
--------------------------------------------------------------------------
Device 0: Tesla V100-SXM2-16GB, 80 CUs, 14/16 GB, 1.5 GHZ (Mixed Precision)
--------------------------------------------------------------------------

Initializing Device and compiling on process 0...Done.
Initializing Device 0 on core 0...Done.
Initializing Device 0 on core 1...Done.
Initializing Device 0 on core 2...Done.
Initializing Device 0 on core 3...Done.
Initializing Device 0 on core 4...Done.
Initializing Device 0 on core 5...Done.


--------------------------------------------------------------------------
- Using acceleration for lj/charmm/coul/long:
-  with 6 proc(s) per device.
-  Horizontal vector operations: ENABLED
-  Shared memory system: No
--------------------------------------------------------------------------
Device 0: Tesla V100-SXM2-16GB, 80 CUs, 14/16 GB, 1.5 GHZ (Mixed Precision)
--------------------------------------------------------------------------

Initializing Device and compiling on process 0...Done.
Initializing Device 0 on core 0...Done.
Initializing Device 0 on core 1...Done.
Initializing Device 0 on core 2...Done.
Initializing Device 0 on core 3...Done.
Initializing Device 0 on core 4...Done.
Initializing Device 0 on core 5...Done.

  generated 2278 of 2278 mixed pair_coeff terms from arithmetic mixing rule
Setting up Verlet run ...
  Unit style    : real
  Current step  : 0
  Time step     : 2
Per MPI rank memory allocation (min/avg/max) = 37.77 | 37.88 | 38.08 Mbytes
---------------- Step        0 ----- CPU =      0.0000 (sec) ----------------
TotEng   =    -25358.7422 KinEng   =     21444.8313 Temp     =       299.0397 
PotEng   =    -46803.5735 E_bond   =      2537.9940 E_angle  =     10921.3742 
E_dihed  =      5211.7865 E_impro  =       213.5116 E_vdwl   =     -2307.8635 
E_coul   =    252888.7510 E_long   =   -316269.1272 Press    =      -152.7825 
Volume   =    307995.0335 
---------------- Step       50 ----- CPU =      0.5730 (sec) ----------------
TotEng   =    -25333.3246 KinEng   =     21500.9263 Temp     =       299.8219 
PotEng   =    -46834.2508 E_bond   =      2471.6405 E_angle  =     10836.6045 
E_dihed  =      5239.4719 E_impro  =       227.1338 E_vdwl   =     -1992.5858 
E_coul   =    252663.4903 E_long   =   -316280.0061 Press    =       234.9355 
Volume   =    308031.0998 
---------------- Step      100 ----- CPU =      1.1485 (sec) ----------------
TotEng   =    -25289.9426 KinEng   =     21588.3572 Temp     =       301.0411 
PotEng   =    -46878.2998 E_bond   =      2567.8198 E_angle  =     10781.4116 
E_dihed  =      5198.5505 E_impro  =       216.7998 E_vdwl   =     -1900.6550 
E_coul   =    252531.4815 E_long   =   -316273.7081 Press    =        12.3232 
Volume   =    308132.3436 
---------------- Step      150 ----- CPU =      1.7122 (sec) ----------------
TotEng   =    -25257.5807 KinEng   =     21552.3169 Temp     =       300.5385 
PotEng   =    -46809.8976 E_bond   =      2555.7211 E_angle  =     10856.1424 
E_dihed  =      5264.1200 E_impro  =       203.0460 E_vdwl   =     -2061.2391 
E_coul   =    252630.8276 E_long   =   -316258.5156 Press    =       248.1176 
Volume   =    308514.1755 
---------------- Step      200 ----- CPU =      2.2668 (sec) ----------------
TotEng   =    -25061.4224 KinEng   =     21489.3619 Temp     =       299.6606 
PotEng   =    -46550.7843 E_bond   =      2492.2091 E_angle  =     11073.3786 
E_dihed  =      5224.5332 E_impro  =       232.2810 E_vdwl   =     -2120.3682 
E_coul   =    252827.5924 E_long   =   -316280.4104 Press    =        89.9939 
Volume   =    308993.3803 
---------------- Step      250 ----- CPU =      2.8435 (sec) ----------------
TotEng   =    -24880.8468 KinEng   =     21546.9059 Temp     =       300.4631 
PotEng   =    -46427.7527 E_bond   =      2555.8073 E_angle  =     11112.1810 
E_dihed  =      5253.2163 E_impro  =       221.0451 E_vdwl   =     -2193.4188 
E_coul   =    252898.8305 E_long   =   -316275.4142 Press    =      -166.9699 
Volume   =    309415.6276 
---------------- Step      300 ----- CPU =      3.4020 (sec) ----------------
TotEng   =    -24877.8727 KinEng   =     21559.9693 Temp     =       300.6452 
PotEng   =    -46437.8420 E_bond   =      2563.5211 E_angle  =     10922.0529 
E_dihed  =      5229.7252 E_impro  =       225.2099 E_vdwl   =     -2132.2416 
E_coul   =    253012.2107 E_long   =   -316258.3202 Press    =      -363.9502 
Volume   =    309775.3584 
---------------- Step      350 ----- CPU =      3.9657 (sec) ----------------
TotEng   =    -25044.7353 KinEng   =     21549.3264 Temp     =       300.4968 
PotEng   =    -46594.0616 E_bond   =      2592.7545 E_angle  =     11017.6903 
E_dihed  =      5221.8528 E_impro  =       207.1031 E_vdwl   =     -2214.0661 
E_coul   =    252841.6935 E_long   =   -316261.0897 Press    =      -437.5458 
Volume   =    310055.9421 
---------------- Step      400 ----- CPU =      4.5174 (sec) ----------------
TotEng   =    -25231.7483 KinEng   =     21432.2313 Temp     =       298.8640 
PotEng   =    -46663.9796 E_bond   =      2540.9827 E_angle  =     11001.0198 
E_dihed  =      5171.8965 E_impro  =       217.1495 E_vdwl   =     -2262.4553 
E_coul   =    252939.7350 E_long   =   -316272.3079 Press    =       138.7333 
Volume   =    310140.3372 
---------------- Step      450 ----- CPU =      5.0789 (sec) ----------------
TotEng   =    -25274.7099 KinEng   =     21445.9890 Temp     =       299.0558 
PotEng   =    -46720.6989 E_bond   =      2519.4666 E_angle  =     10880.7724 
E_dihed  =      5277.5332 E_impro  =       222.2610 E_vdwl   =     -2164.2877 
E_coul   =    252814.6387 E_long   =   -316271.0832 Press    =       275.3661 
Volume   =    310082.4807 
---------------- Step      500 ----- CPU =      5.6515 (sec) ----------------
TotEng   =    -25072.8927 KinEng   =     21496.5642 Temp     =       299.7611 
PotEng   =    -46569.4570 E_bond   =      2611.8247 E_angle  =     10936.1787 
E_dihed  =      5228.9163 E_impro  =       209.7291 E_vdwl   =     -2304.9845 
E_coul   =    253004.9111 E_long   =   -316256.0323 Press    =      -405.5537 
Volume   =    309936.4313 
---------------- Step      550 ----- CPU =      6.2052 (sec) ----------------
TotEng   =    -24831.8906 KinEng   =     21743.7359 Temp     =       303.2078 
PotEng   =    -46575.6265 E_bond   =      2544.3662 E_angle  =     10955.2958 
E_dihed  =      5216.0356 E_impro  =       238.9293 E_vdwl   =     -2099.7507 
E_coul   =    252842.2202 E_long   =   -316272.7229 Press    =       207.1594 
Volume   =    309776.8562 
---------------- Step      600 ----- CPU =      6.7652 (sec) ----------------
TotEng   =    -24894.3980 KinEng   =     21621.8323 Temp     =       301.5079 
PotEng   =    -46516.2302 E_bond   =      2560.5123 E_angle  =     11018.7768 
E_dihed  =      5272.8731 E_impro  =       237.6269 E_vdwl   =     -2083.4113 
E_coul   =    252750.5086 E_long   =   -316273.1167 Press    =       -86.4144 
Volume   =    309706.1483 
Loop time of 6.76527 on 6 procs for 600 steps with 32000 atoms

Performance: 15.325 ns/day, 1.566 hours/ns, 88.688 timesteps/s
97.9% CPU use with 6 MPI tasks x 1 OpenMP threads

MPI task timing breakdown:
Section |  min time  |  avg time  |  max time  |%varavg| %total
---------------------------------------------------------------
Pair    | 0.43355    | 0.58746    | 0.73805    |  13.3 |  8.68
Bond    | 1.0661     | 1.1549     | 1.2875     |   7.2 | 17.07
Kspace  | 1.9309     | 2.0587     | 2.1545     |   5.3 | 30.43
Neigh   | 0.097842   | 0.10076    | 0.10249    |   0.6 |  1.49
Comm    | 0.28176    | 0.35185    | 0.39614    |   7.3 |  5.20
Output  | 0.00089514 | 0.00095702 | 0.001194   |   0.0 |  0.01
Modify  | 2.14       | 2.3856     | 2.4791     |   7.5 | 35.26
Other   |            | 0.125      |            |       |  1.85

Nlocal:        5333.33 ave        5397 max        5265 min
Histogram: 2 0 0 1 0 0 0 0 1 2
Nghost:        19012.2 ave       19099 max       18933 min
Histogram: 1 1 1 0 0 1 0 0 1 1
Neighs:              0 ave           0 max           0 min
Histogram: 6 0 0 0 0 0 0 0 0 0

Total # of neighbors = 0
Ave neighs/atom = 0
Ave special neighs/atom = 7.431875
Neighbor list builds = 65
Dangerous builds = 0


---------------------------------------------------------------------
      Device Time Info (average): 
---------------------------------------------------------------------
Data Transfer:   0.0260 s.
Neighbor copy:   0.0401 s.
Neighbor build:  0.2101 s.
Force calc:      0.8221 s.
Device Overhead: 0.4072 s.
Average split:   1.0000.
Lanes / atom:    8.
Vector width:    32.
Max Mem / Proc:  26.33 MB.
CPU Neighbor:    0.0325 s.
CPU Cast/Pack:   0.1078 s.
CPU Driver_Time: 0.0190 s.
CPU Idle_Time:   0.0033 s.
---------------------------------------------------------------------



---------------------------------------------------------------------
    Device Time Info (average) for kspace: 
---------------------------------------------------------------------
Data Out:        0.0216 s.
Data In:         0.1476 s.
Kernel (map):    0.4917 s.
Kernel (rho):    0.0774 s.
Force interp:    0.2496 s.
Total rho:       0.5907 s.
Total interp:    0.3972 s.
Force copy:      0.0179 s.
Total:           1.0058 s.
CPU Poisson:     1.7337 s.
CPU Data Cast:   0.0147 s.
CPU Idle Time:   0.2811 s.
Max Mem / Proc:  5.75 MB.
---------------------------------------------------------------------

Total wall time: 0:00:13
Intel(R) VTune(TM) Profiler 2022.2.0 collection completed successfully. Use the "aps --report /home/ubuntu/lammps/bench/aps_result_20220531" command to generate textual and HTML reports for the profiling session.
