LAMMPS (7 Jan 2022)
  using 1 OpenMP thread(s) per MPI task
Reading data file ...
  orthogonal box = (-27.5 -38.5 -36.3646) to (27.5 38.5 36.3615)
  3 by 4 by 4 MPI processor grid
  reading atoms ...
  32000 atoms
  reading velocities ...
  32000 velocities
  scanning bonds ...
  4 = max bonds/atom
  scanning angles ...
  8 = max angles/atom
  scanning dihedrals ...
  18 = max dihedrals/atom
  scanning impropers ...
  2 = max impropers/atom
  reading bonds ...
  27723 bonds
  reading angles ...
  40467 angles
  reading dihedrals ...
  56829 dihedrals
  reading impropers ...
  1034 impropers
Finding 1-2 1-3 1-4 neighbors ...
  special bond factors lj:    0        0        0       
  special bond factors coul:  0        0        0       
     4 = max # of 1-2 neighbors
    12 = max # of 1-3 neighbors
    24 = max # of 1-4 neighbors
    26 = max # of special neighbors
  special bonds CPU = 0.008 seconds
  read_data CPU = 0.398 seconds
Replicating atoms ...
  orthogonal box = (-27.5 -38.5 -36.3646) to (192.5 269.5 254.5398)
  3 by 4 by 4 MPI processor grid
  2048000 atoms
  1774272 bonds
  2589888 angles
  3637056 dihedrals
  66176 impropers
Finding 1-2 1-3 1-4 neighbors ...
  special bond factors lj:    0        0        0       
  special bond factors coul:  0        0        0       
     4 = max # of 1-2 neighbors
    12 = max # of 1-3 neighbors
    24 = max # of 1-4 neighbors
    26 = max # of special neighbors
  special bonds CPU = 0.090 seconds
  replicate CPU = 0.218 seconds
Finding SHAKE clusters ...
  103488 = # of size 2 clusters
  232512 = # of size 3 clusters
   47808 = # of size 4 clusters
  270912 = # of frozen angles
  find clusters CPU = 0.044 seconds

CITE-CITE-CITE-CITE-CITE-CITE-CITE-CITE-CITE-CITE-CITE-CITE-CITE

Your simulation uses code contributions which should be cited:
- GPU package (short-range, long-range and three-body potentials):
The log file lists these citations in BibTeX format.

CITE-CITE-CITE-CITE-CITE-CITE-CITE-CITE-CITE-CITE-CITE-CITE-CITE

PPPM initialization ...
  using 12-bit tables for long-range coulomb (../kspace.cpp:340)
  G vector (1/distance) = 0.24521748
  grid = 96 125 120
  stencil order = 5
  estimated absolute RMS force accuracy = 0.042505564
  estimated relative force accuracy = 0.00012800424
  using single precision MKL FFT
  3d grid and FFT values/proc = 47915 36000

--------------------------------------------------------------------------
- Using acceleration for pppm:
-  with 12 proc(s) per device.
-  Horizontal vector operations: ENABLED
-  Shared memory system: No
--------------------------------------------------------------------------
Device 0: Tesla V100-SXM2-16GB, 80 CUs, 12/16 GB, 1.5 GHZ (Mixed Precision)
Device 1: Tesla V100-SXM2-16GB, 80 CUs, 1.5 GHZ (Mixed Precision)
Device 2: Tesla V100-SXM2-16GB, 80 CUs, 1.5 GHZ (Mixed Precision)
Device 3: Tesla V100-SXM2-16GB, 80 CUs, 1.5 GHZ (Mixed Precision)
--------------------------------------------------------------------------

Initializing Device and compiling on process 0...Done.
Initializing Devices 0-3 on core 0...Done.
Initializing Devices 0-3 on core 1...Done.
Initializing Devices 0-3 on core 2...Done.
Initializing Devices 0-3 on core 3...Done.
Initializing Devices 0-3 on core 4...Done.
Initializing Devices 0-3 on core 5...Done.
Initializing Devices 0-3 on core 6...Done.
Initializing Devices 0-3 on core 7...Done.
Initializing Devices 0-3 on core 8...Done.
Initializing Devices 0-3 on core 9...Done.
Initializing Devices 0-3 on core 10...Done.
Initializing Devices 0-3 on core 11...Done.


--------------------------------------------------------------------------
- Using acceleration for lj/charmm/coul/long:
-  with 12 proc(s) per device.
-  Horizontal vector operations: ENABLED
-  Shared memory system: No
--------------------------------------------------------------------------
Device 0: Tesla V100-SXM2-16GB, 80 CUs, 12/16 GB, 1.5 GHZ (Mixed Precision)
Device 1: Tesla V100-SXM2-16GB, 80 CUs, 1.5 GHZ (Mixed Precision)
Device 2: Tesla V100-SXM2-16GB, 80 CUs, 1.5 GHZ (Mixed Precision)
Device 3: Tesla V100-SXM2-16GB, 80 CUs, 1.5 GHZ (Mixed Precision)
--------------------------------------------------------------------------

Initializing Device and compiling on process 0...Done.
Initializing Devices 0-3 on core 0...Done.
Initializing Devices 0-3 on core 1...Done.
Initializing Devices 0-3 on core 2...Done.
Initializing Devices 0-3 on core 3...Done.
Initializing Devices 0-3 on core 4...Done.
Initializing Devices 0-3 on core 5...Done.
Initializing Devices 0-3 on core 6...Done.
Initializing Devices 0-3 on core 7...Done.
Initializing Devices 0-3 on core 8...Done.
Initializing Devices 0-3 on core 9...Done.
Initializing Devices 0-3 on core 10...Done.
Initializing Devices 0-3 on core 11...Done.

  generated 2278 of 2278 mixed pair_coeff terms from arithmetic mixing rule
Setting up Verlet run ...
  Unit style    : real
  Current step  : 0
  Time step     : 2
Per MPI rank memory allocation (min/avg/max) = 133.7 | 134 | 134.2 Mbytes
---------------- Step        0 ----- CPU =      0.0000 (sec) ----------------
TotEng   =  -1622757.0486 KinEng   =   1372469.2022 Temp     =       299.0274 
PotEng   =  -2995226.2508 E_bond   =    162431.6167 E_angle  =    698967.9493 
E_dihed  =    333554.3360 E_impro  =     13664.7415 E_vdwl   =   -147703.3196 
E_coul   =  12998901.2598 E_long   = -17055042.8345 Press    =      -148.6931 
Volume   =  19711682.1440 
---------------- Step       50 ----- CPU =      3.5854 (sec) ----------------
TotEng   =  -1621040.2874 KinEng   =   1376072.5971 Temp     =       299.8125 
PotEng   =  -2997112.8844 E_bond   =    158195.5652 E_angle  =    693548.5047 
E_dihed  =    335344.2029 E_impro  =     14535.9728 E_vdwl   =   -127551.9647 
E_coul   =  12984287.7657 E_long   = -17055472.9310 Press    =       238.7544 
Volume   =  19714039.4518 
---------------- Step      100 ----- CPU =      7.2887 (sec) ----------------
TotEng   =  -1618501.5247 KinEng   =   1381843.7553 Temp     =       301.0699 
PotEng   =  -3000345.2800 E_bond   =    164361.2547 E_angle  =    690056.9860 
E_dihed  =    332707.9693 E_impro  =     13870.0756 E_vdwl   =   -121504.7887 
E_coul   =  12975295.0264 E_long   = -17055131.8034 Press    =        11.4601 
Volume   =  19720645.0559 
Loop time of 7.28879 on 48 procs for 100 steps with 2048000 atoms

Performance: 2.371 ns/day, 10.123 hours/ns, 13.720 timesteps/s
95.3% CPU use with 48 MPI tasks x 1 OpenMP threads

MPI task timing breakdown:
Section |  min time  |  avg time  |  max time  |%varavg| %total
---------------------------------------------------------------
Pair    | 0.65521    | 0.77475    | 0.93013    |   7.9 | 10.63
Bond    | 1.5373     | 1.5945     | 1.6727     |   2.8 | 21.88
Kspace  | 1.4809     | 1.5528     | 1.6203     |   3.0 | 21.30
Neigh   | 0.32298    | 0.32934    | 0.33301    |   0.4 |  4.52
Comm    | 0.52711    | 0.58109    | 0.6422     |   6.0 |  7.97
Output  | 0.0006216  | 0.00064513 | 0.00071348 |   0.0 |  0.01
Modify  | 2.041      | 2.2391     | 2.4316     |   7.3 | 30.72
Other   |            | 0.2165     |            |       |  2.97

Nlocal:        42666.7 ave       42696 max       42630 min
Histogram: 16 0 0 0 0 0 16 0 0 16
Nghost:        55815.8 ave       55850 max       55795 min
Histogram: 20 8 4 0 0 0 0 0 4 12
Neighs:              0 ave           0 max           0 min
Histogram: 48 0 0 0 0 0 0 0 0 0

Total # of neighbors = 0
Ave neighs/atom = 0
Ave special neighs/atom = 7.431875
Neighbor list builds = 11
Dangerous builds = 0


---------------------------------------------------------------------
      Device Time Info (average): 
---------------------------------------------------------------------
Data Transfer:   0.0266 s.
Neighbor copy:   0.2774 s.
Neighbor build:  0.4520 s.
Force calc:      0.4667 s.
Device Overhead: 0.1303 s.
Average split:   1.0000.
Lanes / atom:    8.
Vector width:    32.
Max Mem / Proc:  198.74 MB.
CPU Neighbor:    0.0842 s.
CPU Cast/Pack:   0.2146 s.
CPU Driver_Time: 0.0030 s.
CPU Idle_Time:   0.0039 s.
---------------------------------------------------------------------



---------------------------------------------------------------------
    Device Time Info (average) for kspace: 
---------------------------------------------------------------------
Data Out:        0.0155 s.
Data In:         0.1870 s.
Kernel (map):    0.3116 s.
Kernel (rho):    0.0220 s.
Force interp:    0.1075 s.
Total rho:       0.3491 s.
Total interp:    0.2946 s.
Force copy:      0.1383 s.
Total:           0.7819 s.
CPU Poisson:     1.1601 s.
CPU Data Cast:   0.0331 s.
CPU Idle Time:   0.3940 s.
Max Mem / Proc:  10.50 MB.
---------------------------------------------------------------------

Total wall time: 0:01:15
Intel(R) VTune(TM) Profiler 2022.2.0 collection completed successfully. Use the "aps --report /home/ubuntu/lammps/bench/aps_result_20220530" command to generate textual and HTML reports for the profiling session.
