LAMMPS (7 Jan 2022)
  using 1 OpenMP thread(s) per MPI task
New timer settings: style=full  mode=nosync  timeout=off
Reading data file ...
  orthogonal box = (-27.5 -38.5 -36.3646) to (27.5 38.5 36.3615)
  1 by 3 by 2 MPI processor grid
  reading atoms ...
  32000 atoms
  reading velocities ...
  32000 velocities
  scanning bonds ...
  4 = max bonds/atom
  scanning angles ...
  8 = max angles/atom
  scanning dihedrals ...
  18 = max dihedrals/atom
  scanning impropers ...
  2 = max impropers/atom
  reading bonds ...
  27723 bonds
  reading angles ...
  40467 angles
  reading dihedrals ...
  56829 dihedrals
  reading impropers ...
  1034 impropers
Finding 1-2 1-3 1-4 neighbors ...
  special bond factors lj:    0        0        0       
  special bond factors coul:  0        0        0       
     4 = max # of 1-2 neighbors
    12 = max # of 1-3 neighbors
    24 = max # of 1-4 neighbors
    26 = max # of special neighbors
  special bonds CPU = 0.006 seconds
  read_data CPU = 0.342 seconds
Finding SHAKE clusters ...
    1617 = # of size 2 clusters
    3633 = # of size 3 clusters
     747 = # of size 4 clusters
    4233 = # of frozen angles
  find clusters CPU = 0.003 seconds

CITE-CITE-CITE-CITE-CITE-CITE-CITE-CITE-CITE-CITE-CITE-CITE-CITE

Your simulation uses code contributions which should be cited:
- GPU package (short-range, long-range and three-body potentials):
The log file lists these citations in BibTeX format.

CITE-CITE-CITE-CITE-CITE-CITE-CITE-CITE-CITE-CITE-CITE-CITE-CITE

PPPM initialization ...
  using 12-bit tables for long-range coulomb (../kspace.cpp:340)
  G vector (1/distance) = 0.24883488
  grid = 25 32 32
  stencil order = 5
  estimated absolute RMS force accuracy = 0.035547797
  estimated relative force accuracy = 0.00010705113
  using single precision MKL FFT
  3d grid and FFT values/proc = 10710 4800

--------------------------------------------------------------------------
- Using acceleration for pppm:
-  with 6 proc(s) per device.
-  Horizontal vector operations: ENABLED
-  Shared memory system: No
--------------------------------------------------------------------------
Device 0: Tesla V100-SXM2-16GB, 80 CUs, 14/16 GB, 1.5 GHZ (Mixed Precision)
--------------------------------------------------------------------------

Initializing Device and compiling on process 0...Done.
Initializing Device 0 on core 0...Done.
Initializing Device 0 on core 1...Done.
Initializing Device 0 on core 2...Done.
Initializing Device 0 on core 3...Done.
Initializing Device 0 on core 4...Done.
Initializing Device 0 on core 5...Done.


--------------------------------------------------------------------------
- Using acceleration for lj/charmm/coul/long:
-  with 6 proc(s) per device.
-  Horizontal vector operations: ENABLED
-  Shared memory system: No
--------------------------------------------------------------------------
Device 0: Tesla V100-SXM2-16GB, 80 CUs, 14/16 GB, 1.5 GHZ (Mixed Precision)
--------------------------------------------------------------------------

Initializing Device and compiling on process 0...Done.
Initializing Device 0 on core 0...Done.
Initializing Device 0 on core 1...Done.
Initializing Device 0 on core 2...Done.
Initializing Device 0 on core 3...Done.
Initializing Device 0 on core 4...Done.
Initializing Device 0 on core 5...Done.

  generated 2278 of 2278 mixed pair_coeff terms from arithmetic mixing rule
Setting up Verlet run ...
  Unit style    : real
  Current step  : 0
  Time step     : 2
Per MPI rank memory allocation (min/avg/max) = 36.02 | 36.13 | 36.28 Mbytes
---------------- Step        0 ----- CPU =      0.0000 (sec) ----------------
TotEng   =    -25356.2686 KinEng   =     21444.8313 Temp     =       299.0397 
PotEng   =    -46801.0999 E_bond   =      2537.9940 E_angle  =     10921.3742 
E_dihed  =      5211.7865 E_impro  =       213.5116 E_vdwl   =     -2307.8635 
E_coul   =    207025.8394 E_long   =   -270403.7421 Press    =      -149.3321 
Volume   =    307995.0335 
---------------- Step       50 ----- CPU =      0.3574 (sec) ----------------
TotEng   =    -25330.0803 KinEng   =     21500.9983 Temp     =       299.8229 
PotEng   =    -46831.0786 E_bond   =      2471.7037 E_angle  =     10836.5108 
E_dihed  =      5239.6320 E_impro  =       227.1219 E_vdwl   =     -1993.2894 
E_coul   =    206797.6435 E_long   =   -270410.4012 Press    =       237.6587 
Volume   =    308031.6776 
---------------- Step      100 ----- CPU =      0.7060 (sec) ----------------
TotEng   =    -25290.7845 KinEng   =     21591.9049 Temp     =       301.0906 
PotEng   =    -46882.6894 E_bond   =      2567.9808 E_angle  =     10781.9578 
E_dihed  =      5198.7496 E_impro  =       216.7865 E_vdwl   =     -1902.6665 
E_coul   =    206659.4846 E_long   =   -270404.9822 Press    =         6.7341 
Volume   =    308134.2326 
---------------- Step      150 ----- CPU =      1.0631 (sec) ----------------
TotEng   =    -25258.1157 KinEng   =     21529.6626 Temp     =       300.2226 
PotEng   =    -46787.7783 E_bond   =      2556.3449 E_angle  =     10852.7821 
E_dihed  =      5265.2324 E_impro  =       203.0690 E_vdwl   =     -2066.1651 
E_coul   =    206797.4438 E_long   =   -270396.4855 Press    =       251.4559 
Volume   =    308515.2439 
---------------- Step      200 ----- CPU =      1.4097 (sec) ----------------
TotEng   =    -25078.9094 KinEng   =     21571.2684 Temp     =       300.8028 
PotEng   =    -46650.1778 E_bond   =      2488.6948 E_angle  =     11073.4424 
E_dihed  =      5221.7521 E_impro  =       232.8567 E_vdwl   =     -2167.6714 
E_coul   =    206902.8735 E_long   =   -270402.1258 Press    =        20.7232 
Volume   =    308997.5404 
---------------- Step      250 ----- CPU =      1.7556 (sec) ----------------
TotEng   =    -24944.3979 KinEng   =     21547.4918 Temp     =       300.4712 
PotEng   =    -46491.8897 E_bond   =      2542.5504 E_angle  =     11105.4667 
E_dihed  =      5239.6453 E_impro  =       212.3496 E_vdwl   =     -2168.7208 
E_coul   =    206988.9927 E_long   =   -270412.1734 Press    =      -169.7607 
Volume   =    309388.0557 
---------------- Step      300 ----- CPU =      2.0934 (sec) ----------------
TotEng   =    -25000.8275 KinEng   =     21497.6852 Temp     =       299.7767 
PotEng   =    -46498.5127 E_bond   =      2557.9360 E_angle  =     10922.2667 
E_dihed  =      5211.1419 E_impro  =       222.2392 E_vdwl   =     -2219.9530 
E_coul   =    207194.7274 E_long   =   -270386.8707 Press    =      -371.3857 
Volume   =    309663.3997 
---------------- Step      350 ----- CPU =      2.4587 (sec) ----------------
TotEng   =    -25130.5638 KinEng   =     21467.6405 Temp     =       299.3577 
PotEng   =    -46598.2043 E_bond   =      2580.3548 E_angle  =     10951.5402 
E_dihed  =      5250.5779 E_impro  =       212.6598 E_vdwl   =     -2162.1093 
E_coul   =    206969.4299 E_long   =   -270400.6577 Press    =      -330.0452 
Volume   =    309799.8525 
---------------- Step      400 ----- CPU =      2.8053 (sec) ----------------
TotEng   =    -25210.7273 KinEng   =     21425.6968 Temp     =       298.7729 
PotEng   =    -46636.4241 E_bond   =      2526.4883 E_angle  =     10965.5447 
E_dihed  =      5205.8233 E_impro  =       212.8006 E_vdwl   =     -2182.4392 
E_coul   =    207049.4676 E_long   =   -270414.1093 Press    =       195.4000 
Volume   =    309815.1018 
---------------- Step      450 ----- CPU =      3.1427 (sec) ----------------
TotEng   =    -25180.8674 KinEng   =     21477.8270 Temp     =       299.4998 
PotEng   =    -46658.6944 E_bond   =      2501.9345 E_angle  =     10959.1330 
E_dihed  =      5244.8363 E_impro  =       225.0992 E_vdwl   =     -2236.4883 
E_coul   =    207039.7180 E_long   =   -270392.9272 Press    =       182.4085 
Volume   =    309768.4738 
---------------- Step      500 ----- CPU =      3.4800 (sec) ----------------
TotEng   =    -25022.1695 KinEng   =     21628.6080 Temp     =       301.6024 
PotEng   =    -46650.7774 E_bond   =      2566.4053 E_angle  =     10949.0398 
E_dihed  =      5258.1982 E_impro  =       216.8908 E_vdwl   =     -2194.6942 
E_coul   =    206947.3600 E_long   =   -270393.9775 Press    =      -308.9247 
Volume   =    309754.0330 
---------------- Step      550 ----- CPU =      3.8273 (sec) ----------------
TotEng   =    -24982.5013 KinEng   =     21619.4926 Temp     =       301.4753 
PotEng   =    -46601.9939 E_bond   =      2502.2952 E_angle  =     10901.0443 
E_dihed  =      5195.0025 E_impro  =       224.9135 E_vdwl   =     -2080.1914 
E_coul   =    207051.8592 E_long   =   -270396.9172 Press    =       394.2627 
Volume   =    309687.6366 
---------------- Step      600 ----- CPU =      4.1761 (sec) ----------------
TotEng   =    -25009.2293 KinEng   =     21684.4622 Temp     =       302.3812 
PotEng   =    -46693.6915 E_bond   =      2574.4343 E_angle  =     10872.2267 
E_dihed  =      5229.0190 E_impro  =       214.4287 E_vdwl   =     -2069.3206 
E_coul   =    206892.6795 E_long   =   -270407.1591 Press    =       156.6691 
Volume   =    309810.9740 
Loop time of 4.17619 on 6 procs for 600 steps with 32000 atoms

Performance: 24.826 ns/day, 0.967 hours/ns, 143.672 timesteps/s
96.5% CPU use with 6 MPI tasks x 1 OpenMP threads

MPI task timing breakdown:
Section |  min time  |  avg time  |  max time  |%varavg|  %CPU | %total
-----------------------------------------------------------------------
Pair    | 0.50464    | 0.56708    | 0.65219    |   7.2 |  96.9 | 13.58
Bond    | 1.0458     | 1.1018     | 1.1696     |   4.2 |  98.2 | 26.38
Kspace  | 0.79096    | 0.85705    | 0.92868    |   5.1 |  96.4 | 20.52
Neigh   | 0.09297    | 0.096212   | 0.097995   |   0.7 |  98.1 |  2.30
Comm    | 0.28055    | 0.31248    | 0.33542    |   3.4 |  95.6 |  7.48
Output  | 0.00088871 | 0.00094774 | 0.0011729  |   0.0 | 100.0 |  0.02
Modify  | 1.0702     | 1.1739     | 1.2048     |   4.4 |  94.8 | 28.11
Other   |            | 0.06672    |            |       |       |  1.60

Nlocal:        5333.33 ave        5422 max        5248 min
Histogram: 1 1 0 1 0 0 1 0 0 2
Nghost:          19063 ave       19135 max       18970 min
Histogram: 2 0 0 0 0 1 0 0 1 2
Neighs:              0 ave           0 max           0 min
Histogram: 6 0 0 0 0 0 0 0 0 0

Total # of neighbors = 0
Ave neighs/atom = 0
Ave special neighs/atom = 7.431875
Neighbor list builds = 66
Dangerous builds = 0


---------------------------------------------------------------------
      Device Time Info (average): 
---------------------------------------------------------------------
Data Transfer:   0.0325 s.
Neighbor copy:   0.0379 s.
Neighbor build:  0.2195 s.
Force calc:      0.8153 s.
Device Overhead: 0.3885 s.
Average split:   1.0000.
Lanes / atom:    8.
Vector width:    32.
Max Mem / Proc:  26.33 MB.
CPU Neighbor:    0.0328 s.
CPU Cast/Pack:   0.1058 s.
CPU Driver_Time: 0.0112 s.
CPU Idle_Time:   0.0143 s.
---------------------------------------------------------------------



---------------------------------------------------------------------
    Device Time Info (average) for kspace: 
---------------------------------------------------------------------
Data Out:        0.0111 s.
Data In:         0.0394 s.
Kernel (map):    0.5151 s.
Kernel (rho):    0.0756 s.
Force interp:    0.3302 s.
Total rho:       0.6019 s.
Total interp:    0.3696 s.
Force copy:      0.0149 s.
Total:           0.9864 s.
CPU Poisson:     0.5325 s.
CPU Data Cast:   0.0145 s.
CPU Idle Time:   0.2989 s.
Max Mem / Proc:  1.64 MB.
---------------------------------------------------------------------

Total wall time: 0:00:08
Intel(R) VTune(TM) Profiler 2022.2.0 collection completed successfully. Use the "aps --report /home/ubuntu/lammps/bench/aps_result_20220420" command to generate textual and HTML reports for the profiling session.
