LAMMPS (7 Jan 2022)
  using 1 OpenMP thread(s) per MPI task
New timer settings: style=full  mode=sync  timeout=off
Reading data file ...
  orthogonal box = (-27.5 -38.5 -36.3646) to (27.5 38.5 36.3615)
  2 by 3 by 2 MPI processor grid
  reading atoms ...
  32000 atoms
  reading velocities ...
  32000 velocities
  scanning bonds ...
  4 = max bonds/atom
  scanning angles ...
  8 = max angles/atom
  scanning dihedrals ...
  18 = max dihedrals/atom
  scanning impropers ...
  2 = max impropers/atom
  reading bonds ...
  27723 bonds
  reading angles ...
  40467 angles
  reading dihedrals ...
  56829 dihedrals
  reading impropers ...
  1034 impropers
Finding 1-2 1-3 1-4 neighbors ...
  special bond factors lj:    0        0        0       
  special bond factors coul:  0        0        0       
     4 = max # of 1-2 neighbors
    12 = max # of 1-3 neighbors
    24 = max # of 1-4 neighbors
    26 = max # of special neighbors
  special bonds CPU = 0.005 seconds
  read_data CPU = 0.322 seconds
Finding SHAKE clusters ...
    1617 = # of size 2 clusters
    3633 = # of size 3 clusters
     747 = # of size 4 clusters
    4233 = # of frozen angles
  find clusters CPU = 0.003 seconds

CITE-CITE-CITE-CITE-CITE-CITE-CITE-CITE-CITE-CITE-CITE-CITE-CITE

Your simulation uses code contributions which should be cited:
- GPU package (short-range, long-range and three-body potentials):
The log file lists these citations in BibTeX format.

CITE-CITE-CITE-CITE-CITE-CITE-CITE-CITE-CITE-CITE-CITE-CITE-CITE

PPPM initialization ...
  using 12-bit tables for long-range coulomb (../kspace.cpp:340)
  G vector (1/distance) = 0.24883488
  grid = 25 32 32
  stencil order = 5
  estimated absolute RMS force accuracy = 0.035547797
  estimated relative force accuracy = 0.00010705113
  using single precision MKL FFT
  3d grid and FFT values/proc = 6426 2400

--------------------------------------------------------------------------
- Using acceleration for pppm:
-  with 6 proc(s) per device.
-  Horizontal vector operations: ENABLED
-  Shared memory system: No
--------------------------------------------------------------------------
Device 0: Tesla V100-SXM2-16GB, 80 CUs, 14/16 GB, 1.5 GHZ (Mixed Precision)
Device 1: Tesla V100-SXM2-16GB, 80 CUs, 1.5 GHZ (Mixed Precision)
--------------------------------------------------------------------------

Initializing Device and compiling on process 0...Done.
Initializing Devices 0-1 on core 0...Done.
Initializing Devices 0-1 on core 1...Done.
Initializing Devices 0-1 on core 2...Done.
Initializing Devices 0-1 on core 3...Done.
Initializing Devices 0-1 on core 4...Done.
Initializing Devices 0-1 on core 5...Done.


--------------------------------------------------------------------------
- Using acceleration for lj/charmm/coul/long:
-  with 6 proc(s) per device.
-  Horizontal vector operations: ENABLED
-  Shared memory system: No
--------------------------------------------------------------------------
Device 0: Tesla V100-SXM2-16GB, 80 CUs, 14/16 GB, 1.5 GHZ (Mixed Precision)
Device 1: Tesla V100-SXM2-16GB, 80 CUs, 1.5 GHZ (Mixed Precision)
--------------------------------------------------------------------------

Initializing Device and compiling on process 0...Done.
Initializing Devices 0-1 on core 0...Done.
Initializing Devices 0-1 on core 1...Done.
Initializing Devices 0-1 on core 2...Done.
Initializing Devices 0-1 on core 3...Done.
Initializing Devices 0-1 on core 4...Done.
Initializing Devices 0-1 on core 5...Done.

  generated 2278 of 2278 mixed pair_coeff terms from arithmetic mixing rule
Setting up Verlet run ...
  Unit style    : real
  Current step  : 0
  Time step     : 2
Per MPI rank memory allocation (min/avg/max) = 18.46 | 18.55 | 18.69 Mbytes
---------------- Step        0 ----- CPU =      0.0000 (sec) ----------------
TotEng   =    -25356.2687 KinEng   =     21444.8313 Temp     =       299.0397 
PotEng   =    -46801.1000 E_bond   =      2537.9940 E_angle  =     10921.3742 
E_dihed  =      5211.7865 E_impro  =       213.5116 E_vdwl   =     -2307.8635 
E_coul   =    207025.8394 E_long   =   -270403.7421 Press    =      -149.3321 
Volume   =    307995.0335 
---------------- Step       50 ----- CPU =      0.3118 (sec) ----------------
TotEng   =    -25330.0805 KinEng   =     21500.9994 Temp     =       299.8229 
PotEng   =    -46831.0799 E_bond   =      2471.7037 E_angle  =     10836.5108 
E_dihed  =      5239.6320 E_impro  =       227.1218 E_vdwl   =     -1993.2891 
E_coul   =    206797.6422 E_long   =   -270410.4014 Press    =       237.6565 
Volume   =    308031.6776 
---------------- Step      100 ----- CPU =      0.6147 (sec) ----------------
TotEng   =    -25290.7800 KinEng   =     21591.9051 Temp     =       301.0906 
PotEng   =    -46882.6851 E_bond   =      2567.9807 E_angle  =     10781.9582 
E_dihed  =      5198.7496 E_impro  =       216.7865 E_vdwl   =     -1902.6685 
E_coul   =    206659.4904 E_long   =   -270404.9820 Press    =         6.7344 
Volume   =    308134.2325 
---------------- Step      150 ----- CPU =      0.9091 (sec) ----------------
TotEng   =    -25258.1223 KinEng   =     21529.6695 Temp     =       300.2227 
PotEng   =    -46787.7919 E_bond   =      2556.3453 E_angle  =     10852.7810 
E_dihed  =      5265.2330 E_impro  =       203.0688 E_vdwl   =     -2066.1475 
E_coul   =    206797.4128 E_long   =   -270396.4853 Press    =       251.4646 
Volume   =    308515.2418 
---------------- Step      200 ----- CPU =      1.2135 (sec) ----------------
TotEng   =    -25078.9425 KinEng   =     21571.1986 Temp     =       300.8018 
PotEng   =    -46650.1412 E_bond   =      2488.6946 E_angle  =     11073.4401 
E_dihed  =      5221.7515 E_impro  =       232.8568 E_vdwl   =     -2167.6269 
E_coul   =    206902.8631 E_long   =   -270402.1203 Press    =        20.7403 
Volume   =    308997.5553 
---------------- Step      250 ----- CPU =      1.5213 (sec) ----------------
TotEng   =    -24944.3685 KinEng   =     21547.7489 Temp     =       300.4748 
PotEng   =    -46492.1175 E_bond   =      2542.5557 E_angle  =     11105.4511 
E_dihed  =      5239.6487 E_impro  =       212.3505 E_vdwl   =     -2168.8717 
E_coul   =    206988.9082 E_long   =   -270412.1599 Press    =      -170.0227 
Volume   =    309388.1583 
---------------- Step      300 ----- CPU =      1.8135 (sec) ----------------
TotEng   =    -25000.7191 KinEng   =     21497.7769 Temp     =       299.7780 
PotEng   =    -46498.4959 E_bond   =      2558.0879 E_angle  =     10923.0148 
E_dihed  =      5211.1953 E_impro  =       222.2946 E_vdwl   =     -2221.8781 
E_coul   =    207195.5036 E_long   =   -270386.7141 Press    =      -374.0767 
Volume   =    309663.3587 
---------------- Step      350 ----- CPU =      2.1179 (sec) ----------------
TotEng   =    -25131.0692 KinEng   =     21467.0808 Temp     =       299.3499 
PotEng   =    -46598.1500 E_bond   =      2580.1570 E_angle  =     10951.9317 
E_dihed  =      5250.5164 E_impro  =       212.6558 E_vdwl   =     -2166.0795 
E_coul   =    206974.0155 E_long   =   -270401.3469 Press    =      -332.8096 
Volume   =    309798.8959 
---------------- Step      400 ----- CPU =      2.4133 (sec) ----------------
TotEng   =    -25212.5226 KinEng   =     21436.1408 Temp     =       298.9185 
PotEng   =    -46648.6634 E_bond   =      2525.1631 E_angle  =     10965.8890 
E_dihed  =      5206.7067 E_impro  =       213.1681 E_vdwl   =     -2193.3630 
E_coul   =    207048.4912 E_long   =   -270414.7185 Press    =       180.4253 
Volume   =    309812.3584 
---------------- Step      450 ----- CPU =      2.7148 (sec) ----------------
TotEng   =    -25181.6846 KinEng   =     21478.3040 Temp     =       299.5064 
PotEng   =    -46659.9886 E_bond   =      2501.5245 E_angle  =     10955.2453 
E_dihed  =      5241.0751 E_impro  =       225.0222 E_vdwl   =     -2228.4018 
E_coul   =    207033.6757 E_long   =   -270388.1296 Press    =       189.1325 
Volume   =    309765.2361 
---------------- Step      500 ----- CPU =      3.0129 (sec) ----------------
TotEng   =    -25004.6904 KinEng   =     21622.3166 Temp     =       301.5146 
PotEng   =    -46627.0070 E_bond   =      2562.4202 E_angle  =     10935.0356 
E_dihed  =      5261.5256 E_impro  =       217.0885 E_vdwl   =     -2128.8820 
E_coul   =    206922.7243 E_long   =   -270396.9190 Press    =      -247.9420 
Volume   =    309753.0013 
---------------- Step      550 ----- CPU =      3.3165 (sec) ----------------
TotEng   =    -24939.7188 KinEng   =     21693.1575 Temp     =       302.5025 
PotEng   =    -46632.8763 E_bond   =      2511.9115 E_angle  =     10909.2802 
E_dihed  =      5207.3293 E_impro  =       227.8716 E_vdwl   =     -2187.0139 
E_coul   =    207096.3620 E_long   =   -270398.6170 Press    =       293.9360 
Volume   =    309707.4854 
---------------- Step      600 ----- CPU =      3.6224 (sec) ----------------
TotEng   =    -25015.1849 KinEng   =     21707.5723 Temp     =       302.7035 
PotEng   =    -46722.7573 E_bond   =      2578.4703 E_angle  =     10858.3466 
E_dihed  =      5238.3165 E_impro  =       218.0787 E_vdwl   =     -2289.0016 
E_coul   =    207070.7743 E_long   =   -270397.7421 Press    =        20.5656 
Volume   =    309792.9533 
Loop time of 3.62248 on 12 procs for 600 steps with 32000 atoms

Performance: 28.621 ns/day, 0.839 hours/ns, 165.633 timesteps/s
97.6% CPU use with 12 MPI tasks x 1 OpenMP threads

MPI task timing breakdown:
Section |  min time  |  avg time  |  max time  |%varavg|  %CPU | %total
-----------------------------------------------------------------------
Pair    | 0.80005    | 0.82176    | 0.84997    |   1.4 |  97.4 | 22.69
Bond    | 0.48839    | 0.55506    | 0.69036    |   7.7 |  99.2 | 15.32
Kspace  | 0.91536    | 0.91576    | 0.91651    |   0.0 |  96.9 | 25.28
Neigh   | 0.053386   | 0.053397   | 0.053414   |   0.0 |  97.1 |  1.47
Comm    | 0.22653    | 0.22808    | 0.22948    |   0.2 |  97.1 |  6.30
Output  | 0.0009605  | 0.00098802 | 0.0012589  |   0.0 | 100.0 |  0.03
Modify  | 0.50249    | 0.56219    | 0.59446    |   5.0 |  97.2 | 15.52
Sync    | 0.30922    | 0.45995    | 0.57797    |  12.0 |  98.0 | 12.70
Other   |            | 0.4852     |            |       |       | 13.40

Nlocal:        2666.67 ave        2731 max        2615 min
Histogram: 2 3 0 0 2 1 1 0 1 2
Nghost:        13246.8 ave       13333 max       13134 min
Histogram: 1 1 1 1 1 0 1 4 0 2
Neighs:              0 ave           0 max           0 min
Histogram: 12 0 0 0 0 0 0 0 0 0

Total # of neighbors = 0
Ave neighs/atom = 0
Ave special neighs/atom = 7.431875
Neighbor list builds = 67
Dangerous builds = 0


---------------------------------------------------------------------
      Device Time Info (average): 
---------------------------------------------------------------------
Data Transfer:   0.0182 s.
Neighbor copy:   0.0609 s.
Neighbor build:  0.2172 s.
Force calc:      0.7730 s.
Device Overhead: 0.3945 s.
Average split:   1.0000.
Lanes / atom:    8.
Vector width:    32.
Max Mem / Proc:  13.19 MB.
CPU Neighbor:    0.0232 s.
CPU Cast/Pack:   0.0698 s.
CPU Driver_Time: 0.0110 s.
CPU Idle_Time:   0.0852 s.
---------------------------------------------------------------------



---------------------------------------------------------------------
    Device Time Info (average) for kspace: 
---------------------------------------------------------------------
Data Out:        0.0098 s.
Data In:         0.0207 s.
Kernel (map):    0.4951 s.
Kernel (rho):    0.0688 s.
Force interp:    0.4662 s.
Total rho:       0.5736 s.
Total interp:    0.4869 s.
Force copy:      0.0107 s.
Total:           1.0712 s.
CPU Poisson:     0.5324 s.
CPU Data Cast:   0.0067 s.
CPU Idle Time:   0.3610 s.
Max Mem / Proc:  0.88 MB.
---------------------------------------------------------------------

Total wall time: 0:00:10
Intel(R) VTune(TM) Profiler 2022.1.0 collection completed successfully. Use the "aps --report /home/ubuntu/lammps/bench/aps_result_20220414" command to generate textual and HTML reports for the profiling session.
