LAMMPS (7 Jan 2022)
  using 1 OpenMP thread(s) per MPI task
Reading data file ...
  orthogonal box = (-27.5 -38.5 -36.3646) to (27.5 38.5 36.3615)
  2 by 4 by 3 MPI processor grid
  reading atoms ...
  32000 atoms
  reading velocities ...
  32000 velocities
  scanning bonds ...
  4 = max bonds/atom
  scanning angles ...
  8 = max angles/atom
  scanning dihedrals ...
  18 = max dihedrals/atom
  scanning impropers ...
  2 = max impropers/atom
  reading bonds ...
  27723 bonds
  reading angles ...
  40467 angles
  reading dihedrals ...
  56829 dihedrals
  reading impropers ...
  1034 impropers
Finding 1-2 1-3 1-4 neighbors ...
  special bond factors lj:    0        0        0       
  special bond factors coul:  0        0        0       
     4 = max # of 1-2 neighbors
    12 = max # of 1-3 neighbors
    24 = max # of 1-4 neighbors
    26 = max # of special neighbors
  special bonds CPU = 0.006 seconds
  read_data CPU = 0.401 seconds
Finding SHAKE clusters ...
    1617 = # of size 2 clusters
    3633 = # of size 3 clusters
     747 = # of size 4 clusters
    4233 = # of frozen angles
  find clusters CPU = 0.003 seconds

CITE-CITE-CITE-CITE-CITE-CITE-CITE-CITE-CITE-CITE-CITE-CITE-CITE

Your simulation uses code contributions which should be cited:
- GPU package (short-range, long-range and three-body potentials):
The log file lists these citations in BibTeX format.

CITE-CITE-CITE-CITE-CITE-CITE-CITE-CITE-CITE-CITE-CITE-CITE-CITE

PPPM initialization ...
  using 12-bit tables for long-range coulomb (../kspace.cpp:340)
  G vector (1/distance) = 0.24883488
  grid = 25 32 32
  stencil order = 5
  estimated absolute RMS force accuracy = 0.035547797
  estimated relative force accuracy = 0.00010705113
  using single precision MKL FFT
  3d grid and FFT values/proc = 3978 1600

--------------------------------------------------------------------------
- Using acceleration for pppm:
-  with 3 proc(s) per device.
-  Horizontal vector operations: ENABLED
-  Shared memory system: No
--------------------------------------------------------------------------
Device 0: Tesla V100-SXM2-16GB, 80 CUs, 15/16 GB, 1.5 GHZ (Single Precision)
Device 1: Tesla V100-SXM2-16GB, 80 CUs, 1.5 GHZ (Single Precision)
Device 2: Tesla V100-SXM2-16GB, 80 CUs, 1.5 GHZ (Single Precision)
Device 3: Tesla V100-SXM2-16GB, 80 CUs, 1.5 GHZ (Single Precision)
Device 4: Tesla V100-SXM2-16GB, 80 CUs, 1.5 GHZ (Single Precision)
Device 5: Tesla V100-SXM2-16GB, 80 CUs, 1.5 GHZ (Single Precision)
Device 6: Tesla V100-SXM2-16GB, 80 CUs, 1.5 GHZ (Single Precision)
Device 7: Tesla V100-SXM2-16GB, 80 CUs, 1.5 GHZ (Single Precision)
--------------------------------------------------------------------------

Initializing Device and compiling on process 0...Done.
Initializing Devices 0-7 on core 0...Done.
Initializing Devices 0-7 on core 1...Done.
Initializing Devices 0-7 on core 2...Done.


--------------------------------------------------------------------------
- Using acceleration for lj/charmm/coul/long:
-  with 3 proc(s) per device.
-  Horizontal vector operations: ENABLED
-  Shared memory system: No
--------------------------------------------------------------------------
Device 0: Tesla V100-SXM2-16GB, 80 CUs, 15/16 GB, 1.5 GHZ (Single Precision)
Device 1: Tesla V100-SXM2-16GB, 80 CUs, 1.5 GHZ (Single Precision)
Device 2: Tesla V100-SXM2-16GB, 80 CUs, 1.5 GHZ (Single Precision)
Device 3: Tesla V100-SXM2-16GB, 80 CUs, 1.5 GHZ (Single Precision)
Device 4: Tesla V100-SXM2-16GB, 80 CUs, 1.5 GHZ (Single Precision)
Device 5: Tesla V100-SXM2-16GB, 80 CUs, 1.5 GHZ (Single Precision)
Device 6: Tesla V100-SXM2-16GB, 80 CUs, 1.5 GHZ (Single Precision)
Device 7: Tesla V100-SXM2-16GB, 80 CUs, 1.5 GHZ (Single Precision)
--------------------------------------------------------------------------

Initializing Device and compiling on process 0...Done.
Initializing Devices 0-7 on core 0...Done.
Initializing Devices 0-7 on core 1...Done.
Initializing Devices 0-7 on core 2...Done.

  generated 2278 of 2278 mixed pair_coeff terms from arithmetic mixing rule
Setting up Verlet run ...
  Unit style    : real
  Current step  : 0
  Time step     : 2
Per MPI rank memory allocation (min/avg/max) = 18.02 | 18.18 | 18.43 Mbytes
---------------- Step        0 ----- CPU =      0.0000 (sec) ----------------
TotEng   =    -25356.2675 KinEng   =     21444.8313 Temp     =       299.0397 
PotEng   =    -46801.0987 E_bond   =      2537.9940 E_angle  =     10921.3742 
E_dihed  =      5211.7865 E_impro  =       213.5116 E_vdwl   =     -2307.8634 
E_coul   =    207025.8405 E_long   =   -270403.7421 Press    =      -149.3320 
Volume   =    307995.0335 
---------------- Step       50 ----- CPU =      0.2200 (sec) ----------------
TotEng   =    -25330.0846 KinEng   =     21500.9981 Temp     =       299.8229 
PotEng   =    -46831.0827 E_bond   =      2471.7038 E_angle  =     10836.5109 
E_dihed  =      5239.6321 E_impro  =       227.1219 E_vdwl   =     -1993.2888 
E_coul   =    206797.6388 E_long   =   -270410.4013 Press    =       237.6566 
Volume   =    308031.6777 
---------------- Step      100 ----- CPU =      0.4087 (sec) ----------------
TotEng   =    -25290.7859 KinEng   =     21591.9047 Temp     =       301.0906 
PotEng   =    -46882.6906 E_bond   =      2567.9808 E_angle  =     10781.9583 
E_dihed  =      5198.7494 E_impro  =       216.7864 E_vdwl   =     -1902.6674 
E_coul   =    206659.4838 E_long   =   -270404.9819 Press    =         6.7345 
Volume   =    308134.2332 
---------------- Step      150 ----- CPU =      0.5828 (sec) ----------------
TotEng   =    -25258.1043 KinEng   =     21529.6600 Temp     =       300.2226 
PotEng   =    -46787.7643 E_bond   =      2556.3459 E_angle  =     10852.7826 
E_dihed  =      5265.2324 E_impro  =       203.0690 E_vdwl   =     -2066.1420 
E_coul   =    206797.4311 E_long   =   -270396.4834 Press    =       251.4931 
Volume   =    308515.2467 
---------------- Step      200 ----- CPU =      0.7589 (sec) ----------------
TotEng   =    -25078.9378 KinEng   =     21571.2769 Temp     =       300.8029 
PotEng   =    -46650.2147 E_bond   =      2488.6967 E_angle  =     11073.4412 
E_dihed  =      5221.7546 E_impro  =       232.8557 E_vdwl   =     -2167.7023 
E_coul   =    206902.8652 E_long   =   -270402.1256 Press    =        20.6800 
Volume   =    308997.5630 
---------------- Step      250 ----- CPU =      0.9324 (sec) ----------------
TotEng   =    -24944.2152 KinEng   =     21547.2240 Temp     =       300.4675 
PotEng   =    -46491.4392 E_bond   =      2542.5465 E_angle  =     11105.4801 
E_dihed  =      5239.6502 E_impro  =       212.3499 E_vdwl   =     -2168.9004 
E_coul   =    206989.5866 E_long   =   -270412.1521 Press    =      -169.6158 
Volume   =    309388.1067 
---------------- Step      300 ----- CPU =      1.1001 (sec) ----------------
TotEng   =    -25000.4087 KinEng   =     21499.5311 Temp     =       299.8024 
PotEng   =    -46499.9397 E_bond   =      2557.9262 E_angle  =     10921.9582 
E_dihed  =      5211.0995 E_impro  =       222.2175 E_vdwl   =     -2220.1798 
E_coul   =    207193.8990 E_long   =   -270386.8604 Press    =      -371.4753 
Volume   =    309663.4838 
---------------- Step      350 ----- CPU =      1.2748 (sec) ----------------
TotEng   =    -25129.2282 KinEng   =     21468.2416 Temp     =       299.3661 
PotEng   =    -46597.4698 E_bond   =      2580.4647 E_angle  =     10951.9700 
E_dihed  =      5250.7757 E_impro  =       212.6622 E_vdwl   =     -2164.6144 
E_coul   =    206973.5417 E_long   =   -270402.2695 Press    =      -332.8602 
Volume   =    309800.7270 
---------------- Step      400 ----- CPU =      1.4459 (sec) ----------------
TotEng   =    -25203.3264 KinEng   =     21393.2068 Temp     =       298.3198 
PotEng   =    -46596.5332 E_bond   =      2527.0161 E_angle  =     10967.5328 
E_dihed  =      5206.4050 E_impro  =       212.3705 E_vdwl   =     -2174.5483 
E_coul   =    207080.4582 E_long   =   -270415.7676 Press    =       208.4473 
Volume   =    309815.2828 
---------------- Step      450 ----- CPU =      1.6200 (sec) ----------------
TotEng   =    -25161.1941 KinEng   =     21457.9575 Temp     =       299.2227 
PotEng   =    -46619.1516 E_bond   =      2499.3635 E_angle  =     10959.9181 
E_dihed  =      5246.3055 E_impro  =       225.4551 E_vdwl   =     -2219.4477 
E_coul   =    207057.3205 E_long   =   -270388.0666 Press    =       212.2190 
Volume   =    309770.0705 
---------------- Step      500 ----- CPU =      1.7893 (sec) ----------------
TotEng   =    -24986.8544 KinEng   =     21566.1857 Temp     =       300.7319 
PotEng   =    -46553.0401 E_bond   =      2571.6920 E_angle  =     10945.0177 
E_dihed  =      5257.9767 E_impro  =       218.1202 E_vdwl   =     -2163.2606 
E_coul   =    207020.1042 E_long   =   -270402.6903 Press    =      -253.4971 
Volume   =    309772.9523 
---------------- Step      550 ----- CPU =      1.9635 (sec) ----------------
TotEng   =    -24936.1389 KinEng   =     21605.0824 Temp     =       301.2743 
PotEng   =    -46541.2213 E_bond   =      2504.0509 E_angle  =     10906.3161 
E_dihed  =      5207.5703 E_impro  =       223.1639 E_vdwl   =     -2036.5434 
E_coul   =    207046.5584 E_long   =   -270392.3375 Press    =       387.6624 
Volume   =    309761.4808 
---------------- Step      600 ----- CPU =      2.1331 (sec) ----------------
TotEng   =    -24996.7749 KinEng   =     21662.4010 Temp     =       302.0736 
PotEng   =    -46659.1759 E_bond   =      2579.2193 E_angle  =     10873.7307 
E_dihed  =      5229.9126 E_impro  =       219.8275 E_vdwl   =     -2143.8647 
E_coul   =    206989.4318 E_long   =   -270407.4331 Press    =        52.6918 
Volume   =    309890.0712 
Loop time of 2.13319 on 24 procs for 600 steps with 32000 atoms

Performance: 48.603 ns/day, 0.494 hours/ns, 281.269 timesteps/s
96.3% CPU use with 24 MPI tasks x 1 OpenMP threads

MPI task timing breakdown:
Section |  min time  |  avg time  |  max time  |%varavg| %total
---------------------------------------------------------------
Pair    | 0.27413    | 0.30643    | 0.35929    |   4.6 | 14.36
Bond    | 0.16868    | 0.32902    | 0.52876    |  23.0 | 15.42
Kspace  | 0.56267    | 0.77071    | 0.9404     |  15.2 | 36.13
Neigh   | 0.033593   | 0.034493   | 0.035434   |   0.3 |  1.62
Comm    | 0.19163    | 0.21541    | 0.23031    |   3.4 | 10.10
Output  | 0.00085216 | 0.00086927 | 0.0011479  |   0.0 |  0.04
Modify  | 0.36406    | 0.42641    | 0.49992    |   6.7 | 19.99
Other   |            | 0.04986    |            |       |  2.34

Nlocal:        1333.33 ave        1383 max        1279 min
Histogram: 2 3 0 4 3 2 1 4 4 1
Nghost:        9812.29 ave        9963 max        9659 min
Histogram: 3 0 3 3 6 0 2 1 4 2
Neighs:              0 ave           0 max           0 min
Histogram: 24 0 0 0 0 0 0 0 0 0

Total # of neighbors = 0
Ave neighs/atom = 0
Ave special neighs/atom = 7.431875
Neighbor list builds = 66
Dangerous builds = 0


---------------------------------------------------------------------
      Device Time Info (average): 
---------------------------------------------------------------------
Data Transfer:   0.0181 s.
Neighbor copy:   0.0321 s.
Neighbor build:  0.1177 s.
Force calc:      0.3557 s.
Device Overhead: 0.2183 s.
Average split:   1.0000.
Lanes / atom:    8.
Vector width:    32.
Max Mem / Proc:  6.90 MB.
CPU Neighbor:    0.0301 s.
CPU Cast/Pack:   0.0452 s.
CPU Driver_Time: 0.0177 s.
CPU Idle_Time:   0.0027 s.
---------------------------------------------------------------------



---------------------------------------------------------------------
    Device Time Info (average) for kspace: 
---------------------------------------------------------------------
Data Out:        0.0120 s.
Data In:         0.0351 s.
Kernel (map):    0.2196 s.
Kernel (rho):    0.0685 s.
Force interp:    0.1185 s.
Total rho:       0.3002 s.
Total interp:    0.1536 s.
Force copy:      0.0088 s.
Total:           0.4626 s.
CPU Poisson:     0.5211 s.
CPU Data Cast:   0.0024 s.
CPU Idle Time:   0.2138 s.
Max Mem / Proc:  0.40 MB.
---------------------------------------------------------------------

Total wall time: 0:00:32
Intel(R) VTune(TM) Profiler 2022.2.0 collection completed successfully. Use the "aps --report /home/ubuntu/lammps/bench/aps_result_20220609" command to generate textual and HTML reports for the profiling session.
