LAMMPS (7 Jan 2022)
  using 1 OpenMP thread(s) per MPI task
Reading data file ...
  orthogonal box = (-27.5 -38.5 -36.3646) to (27.5 38.5 36.3615)
  3 by 4 by 3 MPI processor grid
  reading atoms ...
  32000 atoms
  reading velocities ...
  32000 velocities
  scanning bonds ...
  4 = max bonds/atom
  scanning angles ...
  8 = max angles/atom
  scanning dihedrals ...
  18 = max dihedrals/atom
  scanning impropers ...
  2 = max impropers/atom
  reading bonds ...
  27723 bonds
  reading angles ...
  40467 angles
  reading dihedrals ...
  56829 dihedrals
  reading impropers ...
  1034 impropers
Finding 1-2 1-3 1-4 neighbors ...
  special bond factors lj:    0        0        0       
  special bond factors coul:  0        0        0       
     4 = max # of 1-2 neighbors
    12 = max # of 1-3 neighbors
    24 = max # of 1-4 neighbors
    26 = max # of special neighbors
  special bonds CPU = 0.007 seconds
  read_data CPU = 0.409 seconds
Replicating atoms ...
  orthogonal box = (-27.5 -38.5 -36.3646) to (137.5 192.5 181.8137)
  3 by 4 by 3 MPI processor grid
  864000 atoms
  748521 bonds
  1092609 angles
  1534383 dihedrals
  27918 impropers
Finding 1-2 1-3 1-4 neighbors ...
  special bond factors lj:    0        0        0       
  special bond factors coul:  0        0        0       
     4 = max # of 1-2 neighbors
    12 = max # of 1-3 neighbors
    24 = max # of 1-4 neighbors
    26 = max # of special neighbors
  special bonds CPU = 0.052 seconds
  replicate CPU = 0.117 seconds
Finding SHAKE clusters ...
   43659 = # of size 2 clusters
   98091 = # of size 3 clusters
   20169 = # of size 4 clusters
  114291 = # of frozen angles
  find clusters CPU = 0.024 seconds

CITE-CITE-CITE-CITE-CITE-CITE-CITE-CITE-CITE-CITE-CITE-CITE-CITE

Your simulation uses code contributions which should be cited:
- GPU package (short-range, long-range and three-body potentials):
The log file lists these citations in BibTeX format.

CITE-CITE-CITE-CITE-CITE-CITE-CITE-CITE-CITE-CITE-CITE-CITE-CITE

PPPM initialization ...
  using 12-bit tables for long-range coulomb (../kspace.cpp:340)
  G vector (1/distance) = 0.24587501
  grid = 72 96 90
  stencil order = 5
  estimated absolute RMS force accuracy = 0.041154918
  estimated relative force accuracy = 0.00012393681
  using single precision MKL FFT
  3d grid and FFT values/proc = 29435 20736

--------------------------------------------------------------------------
- Using acceleration for pppm:
-  with 36 proc(s) per device.
-  Horizontal vector operations: ENABLED
-  Shared memory system: No
--------------------------------------------------------------------------
Device 0: Tesla V100-SXM2-16GB, 80 CUs, 5.1/16 GB, 1.5 GHZ (Mixed Precision)
--------------------------------------------------------------------------

Initializing Device and compiling on process 0...Done.
Initializing Device 0 on core 0...Done.
Initializing Device 0 on core 1...Done.
Initializing Device 0 on core 2...Done.
Initializing Device 0 on core 3...Done.
Initializing Device 0 on core 4...Done.
Initializing Device 0 on core 5...Done.
Initializing Device 0 on core 6...Done.
Initializing Device 0 on core 7...Done.
Initializing Device 0 on core 8...Done.
Initializing Device 0 on core 9...Done.
Initializing Device 0 on core 10...Done.
Initializing Device 0 on core 11...Done.
Initializing Device 0 on core 12...Done.
Initializing Device 0 on core 13...Done.
Initializing Device 0 on core 14...Done.
Initializing Device 0 on core 15...Done.
Initializing Device 0 on core 16...Done.
Initializing Device 0 on core 17...Done.
Initializing Device 0 on core 18...Done.
Initializing Device 0 on core 19...Done.
Initializing Device 0 on core 20...Done.
Initializing Device 0 on core 21...Done.
Initializing Device 0 on core 22...Done.
Initializing Device 0 on core 23...Done.
Initializing Device 0 on core 24...Done.
Initializing Device 0 on core 25...Done.
Initializing Device 0 on core 26...Done.
Initializing Device 0 on core 27...Done.
Initializing Device 0 on core 28...Done.
Initializing Device 0 on core 29...Done.
Initializing Device 0 on core 30...Done.
Initializing Device 0 on core 31...Done.
Initializing Device 0 on core 32...Done.
Initializing Device 0 on core 33...Done.
Initializing Device 0 on core 34...Done.
Initializing Device 0 on core 35...Done.


--------------------------------------------------------------------------
- Using acceleration for lj/charmm/coul/long:
-  with 36 proc(s) per device.
-  Horizontal vector operations: ENABLED
-  Shared memory system: No
--------------------------------------------------------------------------
Device 0: Tesla V100-SXM2-16GB, 80 CUs, 4.8/16 GB, 1.5 GHZ (Mixed Precision)
--------------------------------------------------------------------------

Initializing Device and compiling on process 0...Done.
Initializing Device 0 on core 0...Done.
Initializing Device 0 on core 1...Done.
Initializing Device 0 on core 2...Done.
Initializing Device 0 on core 3...Done.
Initializing Device 0 on core 4...Done.
Initializing Device 0 on core 5...Done.
Initializing Device 0 on core 6...Done.
Initializing Device 0 on core 7...Done.
Initializing Device 0 on core 8...Done.
Initializing Device 0 on core 9...Done.
Initializing Device 0 on core 10...Done.
Initializing Device 0 on core 11...Done.
Initializing Device 0 on core 12...Done.
Initializing Device 0 on core 13...Done.
Initializing Device 0 on core 14...Done.
Initializing Device 0 on core 15...Done.
Initializing Device 0 on core 16...Done.
Initializing Device 0 on core 17...Done.
Initializing Device 0 on core 18...Done.
Initializing Device 0 on core 19...Done.
Initializing Device 0 on core 20...Done.
Initializing Device 0 on core 21...Done.
Initializing Device 0 on core 22...Done.
Initializing Device 0 on core 23...Done.
Initializing Device 0 on core 24...Done.
Initializing Device 0 on core 25...Done.
Initializing Device 0 on core 26...Done.
Initializing Device 0 on core 27...Done.
Initializing Device 0 on core 28...Done.
Initializing Device 0 on core 29...Done.
Initializing Device 0 on core 30...Done.
Initializing Device 0 on core 31...Done.
Initializing Device 0 on core 32...Done.
Initializing Device 0 on core 33...Done.
Initializing Device 0 on core 34...Done.
Initializing Device 0 on core 35...Done.

  generated 2278 of 2278 mixed pair_coeff terms from arithmetic mixing rule
Setting up Verlet run ...
  Unit style    : real
  Current step  : 0
  Time step     : 2
Per MPI rank memory allocation (min/avg/max) = 75.63 | 76.01 | 76.38 Mbytes
---------------- Step        0 ----- CPU =      0.0000 (sec) ----------------
TotEng   =   -684607.4720 KinEng   =    579010.4447 Temp     =       299.0277 
PotEng   =  -1263617.9167 E_bond   =     68525.8383 E_angle  =    294877.1036 
E_dihed  =    140718.2355 E_impro  =      5764.8128 E_vdwl   =    -62312.3570 
E_coul   =   5503140.8793 E_long   =  -7214332.4292 Press    =      -148.7819 
Volume   =   8315865.9045 
---------------- Step       50 ----- CPU =      2.9742 (sec) ----------------
TotEng   =   -683885.4314 KinEng   =    580537.3228 Temp     =       299.8163 
PotEng   =  -1264422.7542 E_bond   =     66738.5310 E_angle  =    292590.9530 
E_dihed  =    141472.6697 E_impro  =      6132.6085 E_vdwl   =    -53808.7509 
E_coul   =   5496968.3441 E_long   =  -7214517.1095 Press    =       238.5959 
Volume   =   8316859.4017 
---------------- Step      100 ----- CPU =      6.0618 (sec) ----------------
TotEng   =   -682807.5646 KinEng   =    582947.8218 Temp     =       301.0611 
PotEng   =  -1265755.3864 E_bond   =     69340.3941 E_angle  =    291119.6201 
E_dihed  =    140358.5985 E_impro  =      5850.7792 E_vdwl   =    -51258.7393 
E_coul   =   5493199.3800 E_long   =  -7214365.4190 Press    =        10.9315 
Volume   =   8319641.0039 
Loop time of 6.06192 on 36 procs for 100 steps with 864000 atoms

Performance: 2.851 ns/day, 8.419 hours/ns, 16.496 timesteps/s
96.6% CPU use with 36 MPI tasks x 1 OpenMP threads

MPI task timing breakdown:
Section |  min time  |  avg time  |  max time  |%varavg| %total
---------------------------------------------------------------
Pair    | 1.7489     | 1.8049     | 1.8615     |   2.0 | 29.77
Bond    | 0.79631    | 0.82439    | 0.92848    |   2.7 | 13.60
Kspace  | 1.4655     | 1.5719     | 1.6026     |   2.0 | 25.93
Neigh   | 0.18604    | 0.19026    | 0.19248    |   0.3 |  3.14
Comm    | 0.27807    | 0.3066     | 0.33312    |   3.6 |  5.06
Output  | 0.00051484 | 0.00052616 | 0.00057454 |   0.0 |  0.01
Modify  | 1.1598     | 1.2713     | 1.3719     |   4.6 | 20.97
Other   |            | 0.09205    |            |       |  1.52

Nlocal:          24000 ave       24061 max       23926 min
Histogram: 9 0 0 9 0 0 0 0 9 9
Nghost:        40696.5 ave       40811 max       40557 min
Histogram: 9 0 0 0 9 0 0 9 0 9
Neighs:              0 ave           0 max           0 min
Histogram: 36 0 0 0 0 0 0 0 0 0

Total # of neighbors = 0
Ave neighs/atom = 0
Ave special neighs/atom = 7.431875
Neighbor list builds = 11
Dangerous builds = 0


---------------------------------------------------------------------
      Device Time Info (average): 
---------------------------------------------------------------------
Data Transfer:   0.0160 s.
Neighbor copy:   0.1378 s.
Neighbor build:  0.4619 s.
Force calc:      1.4036 s.
Device Overhead: 0.3801 s.
Average split:   1.0000.
Lanes / atom:    8.
Vector width:    32.
Max Mem / Proc:  116.14 MB.
CPU Neighbor:    0.0291 s.
CPU Cast/Pack:   0.0964 s.
CPU Driver_Time: 0.0037 s.
CPU Idle_Time:   0.4679 s.
---------------------------------------------------------------------



---------------------------------------------------------------------
    Device Time Info (average) for kspace: 
---------------------------------------------------------------------
Data Out:        0.0094 s.
Data In:         0.0166 s.
Kernel (map):    0.7891 s.
Kernel (rho):    0.0153 s.
Force interp:    1.0417 s.
Total rho:       0.8139 s.
Total interp:    1.0583 s.
Force copy:      0.0111 s.
Total:           1.8833 s.
CPU Poisson:     0.7134 s.
CPU Data Cast:   0.0125 s.
CPU Idle Time:   0.9035 s.
Max Mem / Proc:  6.01 MB.
---------------------------------------------------------------------

Total wall time: 0:00:56
Intel(R) VTune(TM) Profiler 2022.2.0 collection completed successfully. Use the "aps --report /home/ubuntu/lammps/bench/aps_result_20220530" command to generate textual and HTML reports for the profiling session.
