LAMMPS (7 Jan 2022)
  using 1 OpenMP thread(s) per MPI task
New timer settings: style=full  mode=nosync  timeout=off
Reading data file ...
  orthogonal box = (-27.5 -38.5 -36.3646) to (27.5 38.5 36.3615)
  3 by 4 by 4 MPI processor grid
  reading atoms ...
  32000 atoms
  reading velocities ...
  32000 velocities
  scanning bonds ...
  4 = max bonds/atom
  scanning angles ...
  8 = max angles/atom
  scanning dihedrals ...
  18 = max dihedrals/atom
  scanning impropers ...
  2 = max impropers/atom
  reading bonds ...
  27723 bonds
  reading angles ...
  40467 angles
  reading dihedrals ...
  56829 dihedrals
  reading impropers ...
  1034 impropers
Finding 1-2 1-3 1-4 neighbors ...
  special bond factors lj:    0        0        0       
  special bond factors coul:  0        0        0       
     4 = max # of 1-2 neighbors
    12 = max # of 1-3 neighbors
    24 = max # of 1-4 neighbors
    26 = max # of special neighbors
  special bonds CPU = 0.007 seconds
  read_data CPU = 0.342 seconds
Replicating atoms ...
  orthogonal box = (-27.5 -38.5 -36.3646) to (192.5 269.5 254.5398)
  3 by 4 by 4 MPI processor grid
  2048000 atoms
  1774272 bonds
  2589888 angles
  3637056 dihedrals
  66176 impropers
Finding 1-2 1-3 1-4 neighbors ...
  special bond factors lj:    0        0        0       
  special bond factors coul:  0        0        0       
     4 = max # of 1-2 neighbors
    12 = max # of 1-3 neighbors
    24 = max # of 1-4 neighbors
    26 = max # of special neighbors
  special bonds CPU = 0.086 seconds
  replicate CPU = 0.206 seconds
Finding SHAKE clusters ...
  103488 = # of size 2 clusters
  232512 = # of size 3 clusters
   47808 = # of size 4 clusters
  270912 = # of frozen angles
  find clusters CPU = 0.047 seconds

CITE-CITE-CITE-CITE-CITE-CITE-CITE-CITE-CITE-CITE-CITE-CITE-CITE

Your simulation uses code contributions which should be cited:
- GPU package (short-range, long-range and three-body potentials):
The log file lists these citations in BibTeX format.

CITE-CITE-CITE-CITE-CITE-CITE-CITE-CITE-CITE-CITE-CITE-CITE-CITE

PPPM initialization ...
  using 12-bit tables for long-range coulomb (../kspace.cpp:340)
  G vector (1/distance) = 0.24521748
  grid = 96 125 120
  stencil order = 5
  estimated absolute RMS force accuracy = 0.042505564
  estimated relative force accuracy = 0.00012800424
  using single precision MKL FFT
  3d grid and FFT values/proc = 47915 36000

--------------------------------------------------------------------------
- Using acceleration for pppm:
-  with 24 proc(s) per device.
-  Horizontal vector operations: ENABLED
-  Shared memory system: No
--------------------------------------------------------------------------
Device 0: Tesla V100-SXM2-16GB, 80 CUs, 8.7/16 GB, 1.5 GHZ (Mixed Precision)
Device 1: Tesla V100-SXM2-16GB, 80 CUs, 1.5 GHZ (Mixed Precision)
--------------------------------------------------------------------------

Initializing Device and compiling on process 0...Done.
Initializing Devices 0-1 on core 0...Done.
Initializing Devices 0-1 on core 1...Done.
Initializing Devices 0-1 on core 2...Done.
Initializing Devices 0-1 on core 3...Done.
Initializing Devices 0-1 on core 4...Done.
Initializing Devices 0-1 on core 5...Done.
Initializing Devices 0-1 on core 6...Done.
Initializing Devices 0-1 on core 7...Done.
Initializing Devices 0-1 on core 8...Done.
Initializing Devices 0-1 on core 9...Done.
Initializing Devices 0-1 on core 10...Done.
Initializing Devices 0-1 on core 11...Done.
Initializing Devices 0-1 on core 12...Done.
Initializing Devices 0-1 on core 13...Done.
Initializing Devices 0-1 on core 14...Done.
Initializing Devices 0-1 on core 15...Done.
Initializing Devices 0-1 on core 16...Done.
Initializing Devices 0-1 on core 17...Done.
Initializing Devices 0-1 on core 18...Done.
Initializing Devices 0-1 on core 19...Done.
Initializing Devices 0-1 on core 20...Done.
Initializing Devices 0-1 on core 21...Done.
Initializing Devices 0-1 on core 22...Done.
Initializing Devices 0-1 on core 23...Done.


--------------------------------------------------------------------------
- Using acceleration for lj/charmm/coul/long:
-  with 24 proc(s) per device.
-  Horizontal vector operations: ENABLED
-  Shared memory system: No
--------------------------------------------------------------------------
Device 0: Tesla V100-SXM2-16GB, 80 CUs, 8.3/16 GB, 1.5 GHZ (Mixed Precision)
Device 1: Tesla V100-SXM2-16GB, 80 CUs, 1.5 GHZ (Mixed Precision)
--------------------------------------------------------------------------

Initializing Device and compiling on process 0...Done.
Initializing Devices 0-1 on core 0...Done.
Initializing Devices 0-1 on core 1...Done.
Initializing Devices 0-1 on core 2...Done.
Initializing Devices 0-1 on core 3...Done.
Initializing Devices 0-1 on core 4...Done.
Initializing Devices 0-1 on core 5...Done.
Initializing Devices 0-1 on core 6...Done.
Initializing Devices 0-1 on core 7...Done.
Initializing Devices 0-1 on core 8...Done.
Initializing Devices 0-1 on core 9...Done.
Initializing Devices 0-1 on core 10...Done.
Initializing Devices 0-1 on core 11...Done.
Initializing Devices 0-1 on core 12...Done.
Initializing Devices 0-1 on core 13...Done.
Initializing Devices 0-1 on core 14...Done.
Initializing Devices 0-1 on core 15...Done.
Initializing Devices 0-1 on core 16...Done.
Initializing Devices 0-1 on core 17...Done.
Initializing Devices 0-1 on core 18...Done.
Initializing Devices 0-1 on core 19...Done.
Initializing Devices 0-1 on core 20...Done.
Initializing Devices 0-1 on core 21...Done.
Initializing Devices 0-1 on core 22...Done.
Initializing Devices 0-1 on core 23...Done.

  generated 2278 of 2278 mixed pair_coeff terms from arithmetic mixing rule
Setting up Verlet run ...
  Unit style    : real
  Current step  : 0
  Time step     : 2
Per MPI rank memory allocation (min/avg/max) = 133.7 | 134 | 134.2 Mbytes
---------------- Step        0 ----- CPU =      0.0000 (sec) ----------------
TotEng   =  -1622757.0486 KinEng   =   1372469.2022 Temp     =       299.0274 
PotEng   =  -2995226.2507 E_bond   =    162431.6167 E_angle  =    698967.9493 
E_dihed  =    333554.3360 E_impro  =     13664.7415 E_vdwl   =   -147703.3196 
E_coul   =  12998901.2598 E_long   = -17055042.8344 Press    =      -148.6931 
Volume   =  19711682.1440 
---------------- Step       50 ----- CPU =      3.8497 (sec) ----------------
TotEng   =  -1621040.3365 KinEng   =   1376072.6024 Temp     =       299.8125 
PotEng   =  -2997112.9390 E_bond   =    158195.5664 E_angle  =    693548.5070 
E_dihed  =    335344.2032 E_impro  =     14535.9727 E_vdwl   =   -127551.9777 
E_coul   =  12984287.7191 E_long   = -17055472.9296 Press    =       238.7540 
Volume   =  19714039.4522 
---------------- Step      100 ----- CPU =      7.8878 (sec) ----------------
TotEng   =  -1618501.4601 KinEng   =   1381843.7313 Temp     =       301.0699 
PotEng   =  -3000345.1914 E_bond   =    164361.2534 E_angle  =    690056.9853 
E_dihed  =    332707.9684 E_impro  =     13870.0761 E_vdwl   =   -121504.8483 
E_coul   =  12975295.1771 E_long   = -17055131.8034 Press    =        11.4623 
Volume   =  19720645.0511 
Loop time of 7.88793 on 48 procs for 100 steps with 2048000 atoms

Performance: 2.191 ns/day, 10.955 hours/ns, 12.678 timesteps/s
95.9% CPU use with 48 MPI tasks x 1 OpenMP threads

MPI task timing breakdown:
Section |  min time  |  avg time  |  max time  |%varavg|  %CPU | %total
-----------------------------------------------------------------------
Pair    | 1.0188     | 1.0941     | 1.1381     |   2.7 |  98.3 | 13.87
Bond    | 1.5178     | 1.5613     | 1.6252     |   2.7 |  99.6 | 19.79
Kspace  | 1.8771     | 1.9445     | 1.9926     |   2.6 |  93.7 | 24.65
Neigh   | 0.31684    | 0.32061    | 0.32363    |   0.3 |  92.2 |  4.06
Comm    | 0.50395    | 0.55401    | 0.60723    |   5.8 |  90.1 |  7.02
Output  | 0.0004978  | 0.00051838 | 0.0005889  |   0.0 | 100.0 |  0.01
Modify  | 2.1025     | 2.2155     | 2.3441     |   5.9 |  95.9 | 28.09
Other   |            | 0.1974     |            |       |       |  2.50

Nlocal:        42666.7 ave       42696 max       42630 min
Histogram: 16 0 0 0 0 0 16 0 0 16
Nghost:        55815.8 ave       55850 max       55795 min
Histogram: 20 8 4 0 0 0 0 0 4 12
Neighs:              0 ave           0 max           0 min
Histogram: 48 0 0 0 0 0 0 0 0 0

Total # of neighbors = 0
Ave neighs/atom = 0
Ave special neighs/atom = 7.431875
Neighbor list builds = 11
Dangerous builds = 0


---------------------------------------------------------------------
      Device Time Info (average): 
---------------------------------------------------------------------
Data Transfer:   0.0197 s.
Neighbor copy:   0.2845 s.
Neighbor build:  0.8919 s.
Force calc:      1.3031 s.
Device Overhead: 0.2409 s.
Average split:   1.0000.
Lanes / atom:    8.
Vector width:    32.
Max Mem / Proc:  198.74 MB.
CPU Neighbor:    0.0472 s.
CPU Cast/Pack:   0.2052 s.
CPU Driver_Time: 0.0025 s.
CPU Idle_Time:   0.0512 s.
---------------------------------------------------------------------



---------------------------------------------------------------------
    Device Time Info (average) for kspace: 
---------------------------------------------------------------------
Data Out:        0.0118 s.
Data In:         0.1152 s.
Kernel (map):    0.4605 s.
Kernel (rho):    0.0198 s.
Force interp:    0.4762 s.
Total rho:       0.4921 s.
Total interp:    0.5914 s.
Force copy:      0.0731 s.
Total:           1.1566 s.
CPU Poisson:     1.0122 s.
CPU Data Cast:   0.0276 s.
CPU Idle Time:   0.9976 s.
Max Mem / Proc:  10.50 MB.
---------------------------------------------------------------------

Total wall time: 0:00:38
Intel(R) VTune(TM) Profiler 2022.2.0 collection completed successfully. Use the "aps --report /home/ubuntu/lammps/bench/aps_result_20220420" command to generate textual and HTML reports for the profiling session.
