LAMMPS (7 Jan 2022)
  using 1 OpenMP thread(s) per MPI task
Reading data file ...
  orthogonal box = (-27.5 -38.5 -36.3646) to (27.5 38.5 36.3615)
  2 by 3 by 3 MPI processor grid
  reading atoms ...
  32000 atoms
  reading velocities ...
  32000 velocities
  scanning bonds ...
  4 = max bonds/atom
  scanning angles ...
  8 = max angles/atom
  scanning dihedrals ...
  18 = max dihedrals/atom
  scanning impropers ...
  2 = max impropers/atom
  reading bonds ...
  27723 bonds
  reading angles ...
  40467 angles
  reading dihedrals ...
  56829 dihedrals
  reading impropers ...
  1034 impropers
Finding 1-2 1-3 1-4 neighbors ...
  special bond factors lj:    0        0        0       
  special bond factors coul:  0        0        0       
     4 = max # of 1-2 neighbors
    12 = max # of 1-3 neighbors
    24 = max # of 1-4 neighbors
    26 = max # of special neighbors
  special bonds CPU = 0.006 seconds
  read_data CPU = 0.389 seconds
Finding SHAKE clusters ...
    1617 = # of size 2 clusters
    3633 = # of size 3 clusters
     747 = # of size 4 clusters
    4233 = # of frozen angles
  find clusters CPU = 0.003 seconds

CITE-CITE-CITE-CITE-CITE-CITE-CITE-CITE-CITE-CITE-CITE-CITE-CITE

Your simulation uses code contributions which should be cited:
- GPU package (short-range, long-range and three-body potentials):
The log file lists these citations in BibTeX format.

CITE-CITE-CITE-CITE-CITE-CITE-CITE-CITE-CITE-CITE-CITE-CITE-CITE

PPPM initialization ...
  using 12-bit tables for long-range coulomb (../kspace.cpp:340)
  G vector (1/distance) = 0.24883488
  grid = 25 32 32
  stencil order = 5
  estimated absolute RMS force accuracy = 0.035547797
  estimated relative force accuracy = 0.00010705113
  using single precision MKL FFT
  3d grid and FFT values/proc = 5202 1600

--------------------------------------------------------------------------
- Using acceleration for pppm:
-  with 3 proc(s) per device.
-  Horizontal vector operations: ENABLED
-  Shared memory system: No
--------------------------------------------------------------------------
Device 0: Tesla V100-SXM2-16GB, 80 CUs, 15/16 GB, 1.5 GHZ (Double Precision)
Device 1: Tesla V100-SXM2-16GB, 80 CUs, 1.5 GHZ (Double Precision)
Device 2: Tesla V100-SXM2-16GB, 80 CUs, 1.5 GHZ (Double Precision)
Device 3: Tesla V100-SXM2-16GB, 80 CUs, 1.5 GHZ (Double Precision)
Device 4: Tesla V100-SXM2-16GB, 80 CUs, 1.5 GHZ (Double Precision)
Device 5: Tesla V100-SXM2-16GB, 80 CUs, 1.5 GHZ (Double Precision)
--------------------------------------------------------------------------

Initializing Device and compiling on process 0...Done.
Initializing Devices 0-5 on core 0...Done.
Initializing Devices 0-5 on core 1...Done.
Initializing Devices 0-5 on core 2...Done.


--------------------------------------------------------------------------
- Using acceleration for lj/charmm/coul/long:
-  with 3 proc(s) per device.
-  Horizontal vector operations: ENABLED
-  Shared memory system: No
--------------------------------------------------------------------------
Device 0: Tesla V100-SXM2-16GB, 80 CUs, 15/16 GB, 1.5 GHZ (Double Precision)
Device 1: Tesla V100-SXM2-16GB, 80 CUs, 1.5 GHZ (Double Precision)
Device 2: Tesla V100-SXM2-16GB, 80 CUs, 1.5 GHZ (Double Precision)
Device 3: Tesla V100-SXM2-16GB, 80 CUs, 1.5 GHZ (Double Precision)
Device 4: Tesla V100-SXM2-16GB, 80 CUs, 1.5 GHZ (Double Precision)
Device 5: Tesla V100-SXM2-16GB, 80 CUs, 1.5 GHZ (Double Precision)
--------------------------------------------------------------------------

Initializing Device and compiling on process 0...Done.
Initializing Devices 0-5 on core 0...Done.
Initializing Devices 0-5 on core 1...Done.
Initializing Devices 0-5 on core 2...Done.

  generated 2278 of 2278 mixed pair_coeff terms from arithmetic mixing rule
Setting up Verlet run ...
  Unit style    : real
  Current step  : 0
  Time step     : 2
Per MPI rank memory allocation (min/avg/max) = 18.81 | 18.95 | 19.24 Mbytes
---------------- Step        0 ----- CPU =      0.0000 (sec) ----------------
TotEng   =    -25356.2131 KinEng   =     21444.8313 Temp     =       299.0397 
PotEng   =    -46801.0444 E_bond   =      2537.9940 E_angle  =     10921.3742 
E_dihed  =      5211.7865 E_impro  =       213.5116 E_vdwl   =     -2307.8634 
E_coul   =    207025.8948 E_long   =   -270403.7421 Press    =      -149.3266 
Volume   =    307995.0335 
---------------- Step       50 ----- CPU =      0.2376 (sec) ----------------
TotEng   =    -25330.0361 KinEng   =     21500.9983 Temp     =       299.8229 
PotEng   =    -46831.0344 E_bond   =      2471.7036 E_angle  =     10836.5106 
E_dihed  =      5239.6321 E_impro  =       227.1218 E_vdwl   =     -1993.2896 
E_coul   =    206797.6882 E_long   =   -270410.4012 Press    =       237.6593 
Volume   =    308031.6775 
---------------- Step      100 ----- CPU =      0.4436 (sec) ----------------
TotEng   =    -25290.7444 KinEng   =     21591.9077 Temp     =       301.0906 
PotEng   =    -46882.6521 E_bond   =      2567.9808 E_angle  =     10781.9583 
E_dihed  =      5198.7494 E_impro  =       216.7864 E_vdwl   =     -1902.6653 
E_coul   =    206659.5204 E_long   =   -270404.9821 Press    =         6.7317 
Volume   =    308134.2317 
---------------- Step      150 ----- CPU =      0.6393 (sec) ----------------
TotEng   =    -25258.0325 KinEng   =     21529.6501 Temp     =       300.2224 
PotEng   =    -46787.6826 E_bond   =      2556.3466 E_angle  =     10852.7816 
E_dihed  =      5265.2315 E_impro  =       203.0691 E_vdwl   =     -2066.1443 
E_coul   =    206797.5159 E_long   =   -270396.4830 Press    =       251.5183 
Volume   =    308515.2456 
---------------- Step      200 ----- CPU =      0.8388 (sec) ----------------
TotEng   =    -25078.8736 KinEng   =     21571.4122 Temp     =       300.8048 
PotEng   =    -46650.2858 E_bond   =      2488.6945 E_angle  =     11073.4408 
E_dihed  =      5221.7537 E_impro  =       232.8554 E_vdwl   =     -2167.6857 
E_coul   =    206902.7809 E_long   =   -270402.1255 Press    =        20.6681 
Volume   =    308997.5601 
---------------- Step      250 ----- CPU =      1.0397 (sec) ----------------
TotEng   =    -24944.3432 KinEng   =     21546.8491 Temp     =       300.4623 
PotEng   =    -46491.1923 E_bond   =      2542.5494 E_angle  =     11105.4936 
E_dihed  =      5239.6561 E_impro  =       212.3486 E_vdwl   =     -2169.1014 
E_coul   =    206990.0451 E_long   =   -270412.1838 Press    =      -169.9418 
Volume   =    309388.0713 
---------------- Step      300 ----- CPU =      1.2352 (sec) ----------------
TotEng   =    -24999.6078 KinEng   =     21500.2233 Temp     =       299.8121 
PotEng   =    -46499.8310 E_bond   =      2557.8741 E_angle  =     10921.8162 
E_dihed  =      5211.0880 E_impro  =       222.1683 E_vdwl   =     -2220.4966 
E_coul   =    207194.5740 E_long   =   -270386.8550 Press    =      -370.6469 
Volume   =    309663.7013 
---------------- Step      350 ----- CPU =      1.4366 (sec) ----------------
TotEng   =    -25127.9167 KinEng   =     21462.9939 Temp     =       299.2929 
PotEng   =    -46590.9106 E_bond   =      2580.4771 E_angle  =     10952.0610 
E_dihed  =      5250.5804 E_impro  =       212.6850 E_vdwl   =     -2166.9354 
E_coul   =    206982.5610 E_long   =   -270402.3397 Press    =      -335.5790 
Volume   =    309801.2158 
---------------- Step      400 ----- CPU =      1.6342 (sec) ----------------
TotEng   =    -25202.2894 KinEng   =     21394.0391 Temp     =       298.3314 
PotEng   =    -46596.3285 E_bond   =      2526.2684 E_angle  =     10967.7030 
E_dihed  =      5206.2849 E_impro  =       212.3569 E_vdwl   =     -2141.4600 
E_coul   =    207044.3097 E_long   =   -270411.7915 Press    =       237.0547 
Volume   =    309815.9650 
---------------- Step      450 ----- CPU =      1.8384 (sec) ----------------
TotEng   =    -25131.6117 KinEng   =     21510.4020 Temp     =       299.9540 
PotEng   =    -46642.0136 E_bond   =      2502.4523 E_angle  =     10969.0694 
E_dihed  =      5243.2628 E_impro  =       225.9832 E_vdwl   =     -2263.5931 
E_coul   =    207079.2712 E_long   =   -270398.4594 Press    =       156.9168 
Volume   =    309782.0700 
---------------- Step      500 ----- CPU =      2.0383 (sec) ----------------
TotEng   =    -24938.6361 KinEng   =     21610.0287 Temp     =       301.3433 
PotEng   =    -46548.6648 E_bond   =      2572.9162 E_angle  =     10956.1316 
E_dihed  =      5266.8639 E_impro  =       216.0788 E_vdwl   =     -2254.0807 
E_coul   =    207086.3918 E_long   =   -270392.9663 Press    =      -330.8066 
Volume   =    309769.4042 
---------------- Step      550 ----- CPU =      2.2328 (sec) ----------------
TotEng   =    -24920.1758 KinEng   =     21571.0126 Temp     =       300.7992 
PotEng   =    -46491.1883 E_bond   =      2511.5017 E_angle  =     10897.3083 
E_dihed  =      5213.3426 E_impro  =       224.3891 E_vdwl   =     -1951.6386 
E_coul   =    207008.6829 E_long   =   -270394.7742 Press    =       469.5284 
Volume   =    309697.5978 
---------------- Step      600 ----- CPU =      2.4306 (sec) ----------------
TotEng   =    -25010.2967 KinEng   =     21675.4107 Temp     =       302.2550 
PotEng   =    -46685.7074 E_bond   =      2572.4236 E_angle  =     10854.6547 
E_dihed  =      5238.4673 E_impro  =       216.6998 E_vdwl   =     -2161.2030 
E_coul   =    206983.1884 E_long   =   -270389.9383 Press    =       110.4637 
Volume   =    309782.8101 
Loop time of 2.43074 on 18 procs for 600 steps with 32000 atoms

Performance: 42.654 ns/day, 0.563 hours/ns, 246.839 timesteps/s
96.3% CPU use with 18 MPI tasks x 1 OpenMP threads

MPI task timing breakdown:
Section |  min time  |  avg time  |  max time  |%varavg| %total
---------------------------------------------------------------
Pair    | 0.29434    | 0.36182    | 0.42173    |   5.7 | 14.89
Bond    | 0.22219    | 0.41687    | 0.66363    |  26.8 | 17.15
Kspace  | 0.57245    | 0.82095    | 1.0179     |  19.0 | 33.77
Neigh   | 0.040333   | 0.041301   | 0.042022   |   0.2 |  1.70
Comm    | 0.20007    | 0.21089    | 0.24139    |   3.2 |  8.68
Output  | 0.00082651 | 0.00084764 | 0.0011375  |   0.0 |  0.03
Modify  | 0.46225    | 0.5457     | 0.61851    |   6.0 | 22.45
Other   |            | 0.03236    |            |       |  1.33

Nlocal:        1777.78 ave        1836 max        1721 min
Histogram: 2 1 4 1 0 4 2 0 0 4
Nghost:        11029.3 ave       11169 max       10833 min
Histogram: 2 1 0 3 1 1 3 1 2 4
Neighs:              0 ave           0 max           0 min
Histogram: 18 0 0 0 0 0 0 0 0 0

Total # of neighbors = 0
Ave neighs/atom = 0
Ave special neighs/atom = 7.431875
Neighbor list builds = 66
Dangerous builds = 0


---------------------------------------------------------------------
      Device Time Info (average): 
---------------------------------------------------------------------
Data Transfer:   0.0214 s.
Neighbor copy:   0.0346 s.
Neighbor build:  0.1288 s.
Force calc:      0.4334 s.
Device Overhead: 0.2094 s.
Average split:   1.0000.
Lanes / atom:    8.
Vector width:    32.
Max Mem / Proc:  9.36 MB.
CPU Neighbor:    0.0276 s.
CPU Cast/Pack:   0.0809 s.
CPU Driver_Time: 0.0167 s.
CPU Idle_Time:   0.0028 s.
---------------------------------------------------------------------



---------------------------------------------------------------------
    Device Time Info (average) for kspace: 
---------------------------------------------------------------------
Data Out:        0.0138 s.
Data In:         0.0332 s.
Kernel (map):    0.2338 s.
Kernel (rho):    0.0706 s.
Force interp:    0.1214 s.
Total rho:       0.3183 s.
Total interp:    0.1547 s.
Force copy:      0.0108 s.
Total:           0.4837 s.
CPU Poisson:     0.5561 s.
CPU Data Cast:   0.0043 s.
CPU Idle Time:   0.2307 s.
Max Mem / Proc:  0.65 MB.
---------------------------------------------------------------------

Total wall time: 0:00:24
Intel(R) VTune(TM) Profiler 2022.2.0 collection completed successfully. Use the "aps --report /home/ubuntu/lammps/bench/aps_result_20220610" command to generate textual and HTML reports for the profiling session.
