LAMMPS (7 Jan 2022)
  using 1 OpenMP thread(s) per MPI task
Reading data file ...
  orthogonal box = (-27.5 -38.5 -36.3646) to (27.5 38.5 36.3615)
  3 by 4 by 4 MPI processor grid
  reading atoms ...
  32000 atoms
  reading velocities ...
  32000 velocities
  scanning bonds ...
  4 = max bonds/atom
  scanning angles ...
  8 = max angles/atom
  scanning dihedrals ...
  18 = max dihedrals/atom
  scanning impropers ...
  2 = max impropers/atom
  reading bonds ...
  27723 bonds
  reading angles ...
  40467 angles
  reading dihedrals ...
  56829 dihedrals
  reading impropers ...
  1034 impropers
Finding 1-2 1-3 1-4 neighbors ...
  special bond factors lj:    0        0        0       
  special bond factors coul:  0        0        0       
     4 = max # of 1-2 neighbors
    12 = max # of 1-3 neighbors
    24 = max # of 1-4 neighbors
    26 = max # of special neighbors
  special bonds CPU = 0.006 seconds
  read_data CPU = 0.380 seconds
Replicating atoms ...
  orthogonal box = (-27.5 -38.5 -36.3646) to (192.5 269.5 254.5398)
  3 by 4 by 4 MPI processor grid
  2048000 atoms
  1774272 bonds
  2589888 angles
  3637056 dihedrals
  66176 impropers
Finding 1-2 1-3 1-4 neighbors ...
  special bond factors lj:    0        0        0       
  special bond factors coul:  0        0        0       
     4 = max # of 1-2 neighbors
    12 = max # of 1-3 neighbors
    24 = max # of 1-4 neighbors
    26 = max # of special neighbors
  special bonds CPU = 0.088 seconds
  replicate CPU = 0.208 seconds
Finding SHAKE clusters ...
  103488 = # of size 2 clusters
  232512 = # of size 3 clusters
   47808 = # of size 4 clusters
  270912 = # of frozen angles
  find clusters CPU = 0.044 seconds

CITE-CITE-CITE-CITE-CITE-CITE-CITE-CITE-CITE-CITE-CITE-CITE-CITE

Your simulation uses code contributions which should be cited:
- GPU package (short-range, long-range and three-body potentials):
The log file lists these citations in BibTeX format.

CITE-CITE-CITE-CITE-CITE-CITE-CITE-CITE-CITE-CITE-CITE-CITE-CITE

PPPM initialization ...
  using 12-bit tables for long-range coulomb (../kspace.cpp:340)
  G vector (1/distance) = 0.32764763
  grid = 270 360 360
  stencil order = 5
  estimated absolute RMS force accuracy = 0.0003737576
  estimated relative force accuracy = 1.1255599e-06
  using single precision MKL FFT
  3d grid and FFT values/proc = 912673 777600

--------------------------------------------------------------------------
- Using acceleration for pppm:
-  with 8 proc(s) per device.
-  Horizontal vector operations: ENABLED
-  Shared memory system: No
--------------------------------------------------------------------------
Device 0: Tesla V100-SXM2-16GB, 80 CUs, 13/16 GB, 1.5 GHZ (Mixed Precision)
Device 1: Tesla V100-SXM2-16GB, 80 CUs, 1.5 GHZ (Mixed Precision)
Device 2: Tesla V100-SXM2-16GB, 80 CUs, 1.5 GHZ (Mixed Precision)
Device 3: Tesla V100-SXM2-16GB, 80 CUs, 1.5 GHZ (Mixed Precision)
Device 4: Tesla V100-SXM2-16GB, 80 CUs, 1.5 GHZ (Mixed Precision)
Device 5: Tesla V100-SXM2-16GB, 80 CUs, 1.5 GHZ (Mixed Precision)
--------------------------------------------------------------------------

Initializing Device and compiling on process 0...Done.
Initializing Devices 0-5 on core 0...Done.
Initializing Devices 0-5 on core 1...Done.
Initializing Devices 0-5 on core 2...Done.
Initializing Devices 0-5 on core 3...Done.
Initializing Devices 0-5 on core 4...Done.
Initializing Devices 0-5 on core 5...Done.
Initializing Devices 0-5 on core 6...Done.
Initializing Devices 0-5 on core 7...Done.


--------------------------------------------------------------------------
- Using acceleration for lj/charmm/coul/long:
-  with 8 proc(s) per device.
-  Horizontal vector operations: ENABLED
-  Shared memory system: No
--------------------------------------------------------------------------
Device 0: Tesla V100-SXM2-16GB, 80 CUs, 12/16 GB, 1.5 GHZ (Mixed Precision)
Device 1: Tesla V100-SXM2-16GB, 80 CUs, 1.5 GHZ (Mixed Precision)
Device 2: Tesla V100-SXM2-16GB, 80 CUs, 1.5 GHZ (Mixed Precision)
Device 3: Tesla V100-SXM2-16GB, 80 CUs, 1.5 GHZ (Mixed Precision)
Device 4: Tesla V100-SXM2-16GB, 80 CUs, 1.5 GHZ (Mixed Precision)
Device 5: Tesla V100-SXM2-16GB, 80 CUs, 1.5 GHZ (Mixed Precision)
--------------------------------------------------------------------------

Initializing Device and compiling on process 0...Done.
Initializing Devices 0-5 on core 0...Done.
Initializing Devices 0-5 on core 1...Done.
Initializing Devices 0-5 on core 2...Done.
Initializing Devices 0-5 on core 3...Done.
Initializing Devices 0-5 on core 4...Done.
Initializing Devices 0-5 on core 5...Done.
Initializing Devices 0-5 on core 6...Done.
Initializing Devices 0-5 on core 7...Done.

  generated 2278 of 2278 mixed pair_coeff terms from arithmetic mixing rule
Setting up Verlet run ...
  Unit style    : real
  Current step  : 0
  Time step     : 2
Per MPI rank memory allocation (min/avg/max) = 198.4 | 200.2 | 201.9 Mbytes
---------------- Step        0 ----- CPU =      0.0000 (sec) ----------------
TotEng   =  -1622982.4581 KinEng   =   1372469.2022 Temp     =       299.0274 
PotEng   =  -2995451.6603 E_bond   =    162431.6167 E_angle  =    698967.9493 
E_dihed  =    333554.3360 E_impro  =     13664.7415 E_vdwl   =   -147703.3196 
E_coul   =  18695669.3455 E_long   = -22752036.3296 Press    =      -152.9626 
Volume   =  19711682.1440 
---------------- Step       50 ----- CPU =     26.0719 (sec) ----------------
TotEng   =  -1621304.8114 KinEng   =   1376085.2296 Temp     =       299.8153 
PotEng   =  -2997390.0410 E_bond   =    158186.8873 E_angle  =    693554.3417 
E_dihed  =    335327.0526 E_impro  =     14537.2160 E_vdwl   =   -127520.4864 
E_coul   =  18681566.6915 E_long   = -22753041.7438 Press    =       234.7850 
Volume   =  19713991.3113 
---------------- Step      100 ----- CPU =     52.5101 (sec) ----------------
TotEng   =  -1618408.7346 KinEng   =   1381880.6257 Temp     =       301.0780 
PotEng   =  -3000289.3603 E_bond   =    164344.7015 E_angle  =    690028.1646 
E_dihed  =    332709.1057 E_impro  =     13874.3626 E_vdwl   =   -121621.9853 
E_coul   =  18673021.0633 E_long   = -22752644.7727 Press    =        12.1852 
Volume   =  19720481.8488 
Loop time of 52.5102 on 48 procs for 100 steps with 2048000 atoms

Performance: 0.329 ns/day, 72.931 hours/ns, 1.904 timesteps/s
92.8% CPU use with 48 MPI tasks x 1 OpenMP threads

MPI task timing breakdown:
Section |  min time  |  avg time  |  max time  |%varavg| %total
---------------------------------------------------------------
Pair    | 1.5677     | 3.0071     | 3.8535     |  55.1 |  5.73
Bond    | 1.5349     | 1.5874     | 1.6544     |   3.0 |  3.02
Kspace  | 31.741     | 31.968     | 32.182     |   1.8 | 60.88
Neigh   | 0.304      | 0.306      | 0.30811    |   0.2 |  0.58
Comm    | 0.98763    | 1.4496     | 1.8937     |  25.6 |  2.76
Output  | 0.00051377 | 0.00053898 | 0.00062359 |   0.0 |  0.00
Modify  | 11.362     | 12.829     | 15.005     |  31.5 | 24.43
Other   |            | 1.363      |            |       |  2.60

Nlocal:        42666.7 ave       42689 max       42636 min
Histogram: 16 0 0 0 0 0 0 16 0 16
Nghost:        55813.7 ave       55831 max       55804 min
Histogram: 32 0 0 0 0 0 0 0 0 16
Neighs:              0 ave           0 max           0 min
Histogram: 48 0 0 0 0 0 0 0 0 0

Total # of neighbors = 0
Ave neighs/atom = 0
Ave special neighs/atom = 7.431875
Neighbor list builds = 11
Dangerous builds = 0


---------------------------------------------------------------------
      Device Time Info (average): 
---------------------------------------------------------------------
Data Transfer:   0.0429 s.
Neighbor copy:   0.1536 s.
Neighbor build:  0.3170 s.
Force calc:      0.3497 s.
Device Overhead: 0.0862 s.
Average split:   1.0000.
Lanes / atom:    8.
Vector width:    32.
Max Mem / Proc:  198.74 MB.
CPU Neighbor:    0.0851 s.
CPU Cast/Pack:   0.2083 s.
CPU Driver_Time: 0.0019 s.
CPU Idle_Time:   0.0017 s.
---------------------------------------------------------------------



---------------------------------------------------------------------
    Device Time Info (average) for kspace: 
---------------------------------------------------------------------
Data Out:        0.1366 s.
Data In:         2.8571 s.
Kernel (map):    0.2139 s.
Kernel (rho):    0.0508 s.
Force interp:    0.0432 s.
Total rho:       0.4013 s.
Total interp:    2.9003 s.
Force copy:      0.0305 s.
Total:           3.3322 s.
CPU Poisson:     31.9879 s.
CPU Data Cast:   0.0246 s.
CPU Idle Time:   0.2495 s.
Max Mem / Proc:  147.51 MB.
---------------------------------------------------------------------

Total wall time: 0:01:39
