LAMMPS (7 Jan 2022)
  using 1 OpenMP thread(s) per MPI task
Reading data file ...
  orthogonal box = (-27.5 -38.5 -36.3646) to (27.5 38.5 36.3615)
  3 by 4 by 4 MPI processor grid
  reading atoms ...
  32000 atoms
  reading velocities ...
  32000 velocities
  scanning bonds ...
  4 = max bonds/atom
  scanning angles ...
  8 = max angles/atom
  scanning dihedrals ...
  18 = max dihedrals/atom
  scanning impropers ...
  2 = max impropers/atom
  reading bonds ...
  27723 bonds
  reading angles ...
  40467 angles
  reading dihedrals ...
  56829 dihedrals
  reading impropers ...
  1034 impropers
Finding 1-2 1-3 1-4 neighbors ...
  special bond factors lj:    0        0        0       
  special bond factors coul:  0        0        0       
     4 = max # of 1-2 neighbors
    12 = max # of 1-3 neighbors
    24 = max # of 1-4 neighbors
    26 = max # of special neighbors
  special bonds CPU = 0.006 seconds
  read_data CPU = 0.366 seconds
Replicating atoms ...
  orthogonal box = (-27.5 -38.5 -36.3646) to (192.5 269.5 254.5398)
  3 by 4 by 4 MPI processor grid
  2048000 atoms
  1774272 bonds
  2589888 angles
  3637056 dihedrals
  66176 impropers
Finding 1-2 1-3 1-4 neighbors ...
  special bond factors lj:    0        0        0       
  special bond factors coul:  0        0        0       
     4 = max # of 1-2 neighbors
    12 = max # of 1-3 neighbors
    24 = max # of 1-4 neighbors
    26 = max # of special neighbors
  special bonds CPU = 0.088 seconds
  replicate CPU = 0.208 seconds
Finding SHAKE clusters ...
  103488 = # of size 2 clusters
  232512 = # of size 3 clusters
   47808 = # of size 4 clusters
  270912 = # of frozen angles
  find clusters CPU = 0.044 seconds

CITE-CITE-CITE-CITE-CITE-CITE-CITE-CITE-CITE-CITE-CITE-CITE-CITE

Your simulation uses code contributions which should be cited:
- GPU package (short-range, long-range and three-body potentials):
The log file lists these citations in BibTeX format.

CITE-CITE-CITE-CITE-CITE-CITE-CITE-CITE-CITE-CITE-CITE-CITE-CITE

PPPM initialization ...
  using 12-bit tables for long-range coulomb (../kspace.cpp:340)
  G vector (1/distance) = 0.28895511
  grid = 160 216 200
  stencil order = 5
  estimated absolute RMS force accuracy = 0.0041094504
  estimated relative force accuracy = 1.2375488e-05
  using single precision MKL FFT
  3d grid and FFT values/proc = 208620 172800

--------------------------------------------------------------------------
- Using acceleration for pppm:
-  with 8 proc(s) per device.
-  Horizontal vector operations: ENABLED
-  Shared memory system: No
--------------------------------------------------------------------------
Device 0: Tesla V100-SXM2-16GB, 80 CUs, 13/16 GB, 1.5 GHZ (Mixed Precision)
Device 1: Tesla V100-SXM2-16GB, 80 CUs, 1.5 GHZ (Mixed Precision)
Device 2: Tesla V100-SXM2-16GB, 80 CUs, 1.5 GHZ (Mixed Precision)
Device 3: Tesla V100-SXM2-16GB, 80 CUs, 1.5 GHZ (Mixed Precision)
Device 4: Tesla V100-SXM2-16GB, 80 CUs, 1.5 GHZ (Mixed Precision)
Device 5: Tesla V100-SXM2-16GB, 80 CUs, 1.5 GHZ (Mixed Precision)
--------------------------------------------------------------------------

Initializing Device and compiling on process 0...Done.
Initializing Devices 0-5 on core 0...Done.
Initializing Devices 0-5 on core 1...Done.
Initializing Devices 0-5 on core 2...Done.
Initializing Devices 0-5 on core 3...Done.
Initializing Devices 0-5 on core 4...Done.
Initializing Devices 0-5 on core 5...Done.
Initializing Devices 0-5 on core 6...Done.
Initializing Devices 0-5 on core 7...Done.


--------------------------------------------------------------------------
- Using acceleration for lj/charmm/coul/long:
-  with 8 proc(s) per device.
-  Horizontal vector operations: ENABLED
-  Shared memory system: No
--------------------------------------------------------------------------
Device 0: Tesla V100-SXM2-16GB, 80 CUs, 13/16 GB, 1.5 GHZ (Mixed Precision)
Device 1: Tesla V100-SXM2-16GB, 80 CUs, 1.5 GHZ (Mixed Precision)
Device 2: Tesla V100-SXM2-16GB, 80 CUs, 1.5 GHZ (Mixed Precision)
Device 3: Tesla V100-SXM2-16GB, 80 CUs, 1.5 GHZ (Mixed Precision)
Device 4: Tesla V100-SXM2-16GB, 80 CUs, 1.5 GHZ (Mixed Precision)
Device 5: Tesla V100-SXM2-16GB, 80 CUs, 1.5 GHZ (Mixed Precision)
--------------------------------------------------------------------------

Initializing Device and compiling on process 0...Done.
Initializing Devices 0-5 on core 0...Done.
Initializing Devices 0-5 on core 1...Done.
Initializing Devices 0-5 on core 2...Done.
Initializing Devices 0-5 on core 3...Done.
Initializing Devices 0-5 on core 4...Done.
Initializing Devices 0-5 on core 5...Done.
Initializing Devices 0-5 on core 6...Done.
Initializing Devices 0-5 on core 7...Done.

  generated 2278 of 2278 mixed pair_coeff terms from arithmetic mixing rule
Setting up Verlet run ...
  Unit style    : real
  Current step  : 0
  Time step     : 2
Per MPI rank memory allocation (min/avg/max) = 144.6 | 145.1 | 146.8 Mbytes
---------------- Step        0 ----- CPU =      0.0000 (sec) ----------------
TotEng   =  -1622956.7961 KinEng   =   1372469.2022 Temp     =       299.0274 
PotEng   =  -2995425.9983 E_bond   =    162431.6167 E_angle  =    698967.9493 
E_dihed  =    333554.3360 E_impro  =     13664.7415 E_vdwl   =   -147703.3196 
E_coul   =  16027004.6016 E_long   = -20083345.9237 Press    =      -152.7301 
Volume   =  19711682.1440 
---------------- Step       50 ----- CPU =      6.0541 (sec) ----------------
TotEng   =  -1621276.8946 KinEng   =   1376091.5790 Temp     =       299.8167 
PotEng   =  -2997368.4737 E_bond   =    158187.5097 E_angle  =    693551.4483 
E_dihed  =    335327.4558 E_impro  =     14536.6876 E_vdwl   =   -127521.1625 
E_coul   =  16012574.1575 E_long   = -20084024.5701 Press    =       235.0719 
Volume   =  19713991.3252 
---------------- Step      100 ----- CPU =     12.2385 (sec) ----------------
TotEng   =  -1618405.5736 KinEng   =   1381721.9987 Temp     =       301.0434 
PotEng   =  -3000127.5723 E_bond   =    164347.2646 E_angle  =    690038.4603 
E_dihed  =    332714.0093 E_impro  =     13875.9925 E_vdwl   =   -121635.1690 
E_coul   =  16004157.0895 E_long   = -20083625.2196 Press    =        12.6257 
Volume   =  19720477.3705 
Loop time of 12.2386 on 48 procs for 100 steps with 2048000 atoms

Performance: 1.412 ns/day, 16.998 hours/ns, 8.171 timesteps/s
95.9% CPU use with 48 MPI tasks x 1 OpenMP threads

MPI task timing breakdown:
Section |  min time  |  avg time  |  max time  |%varavg| %total
---------------------------------------------------------------
Pair    | 0.43144    | 0.92009    | 1.3007     |  35.4 |  7.52
Bond    | 1.5227     | 1.5722     | 1.6318     |   2.6 | 12.85
Kspace  | 4.4455     | 4.5458     | 4.6647     |   3.5 | 37.14
Neigh   | 0.26546    | 0.26891    | 0.27164    |   0.3 |  2.20
Comm    | 0.48684    | 0.66491    | 0.73356    |   9.2 |  5.43
Output  | 0.00053395 | 0.00054994 | 0.00061822 |   0.0 |  0.00
Modify  | 3.4373     | 3.8444     | 4.6128     |  18.1 | 31.41
Other   |            | 0.4219     |            |       |  3.45

Nlocal:        42666.7 ave       42689 max       42636 min
Histogram: 16 0 0 0 0 0 0 16 0 16
Nghost:          55817 ave       55834 max       55807 min
Histogram: 16 16 0 0 0 0 0 0 0 16
Neighs:              0 ave           0 max           0 min
Histogram: 48 0 0 0 0 0 0 0 0 0

Total # of neighbors = 0
Ave neighs/atom = 0
Ave special neighs/atom = 7.431875
Neighbor list builds = 11
Dangerous builds = 0


---------------------------------------------------------------------
      Device Time Info (average): 
---------------------------------------------------------------------
Data Transfer:   0.0217 s.
Neighbor copy:   0.1530 s.
Neighbor build:  0.3005 s.
Force calc:      0.3678 s.
Device Overhead: 0.0871 s.
Average split:   1.0000.
Lanes / atom:    8.
Vector width:    32.
Max Mem / Proc:  198.74 MB.
CPU Neighbor:    0.0850 s.
CPU Cast/Pack:   0.2300 s.
CPU Driver_Time: 0.0018 s.
CPU Idle_Time:   0.0018 s.
---------------------------------------------------------------------



---------------------------------------------------------------------
    Device Time Info (average) for kspace: 
---------------------------------------------------------------------
Data Out:        0.0185 s.
Data In:         0.5993 s.
Kernel (map):    0.1922 s.
Kernel (rho):    0.0252 s.
Force interp:    0.0565 s.
Total rho:       0.2359 s.
Total interp:    0.6559 s.
Force copy:      0.0511 s.
Total:           0.9429 s.
CPU Poisson:     4.3817 s.
CPU Data Cast:   0.0332 s.
CPU Idle Time:   0.2090 s.
Max Mem / Proc:  34.74 MB.
---------------------------------------------------------------------

Total wall time: 0:00:58
