LAMMPS (7 Jan 2022)
  using 1 OpenMP thread(s) per MPI task
Reading data file ...
  orthogonal box = (-27.5 -38.5 -36.3646) to (27.5 38.5 36.3615)
  2 by 3 by 2 MPI processor grid
  reading atoms ...
  32000 atoms
  reading velocities ...
  32000 velocities
  scanning bonds ...
  4 = max bonds/atom
  scanning angles ...
  8 = max angles/atom
  scanning dihedrals ...
  18 = max dihedrals/atom
  scanning impropers ...
  2 = max impropers/atom
  reading bonds ...
  27723 bonds
  reading angles ...
  40467 angles
  reading dihedrals ...
  56829 dihedrals
  reading impropers ...
  1034 impropers
Finding 1-2 1-3 1-4 neighbors ...
  special bond factors lj:    0        0        0       
  special bond factors coul:  0        0        0       
     4 = max # of 1-2 neighbors
    12 = max # of 1-3 neighbors
    24 = max # of 1-4 neighbors
    26 = max # of special neighbors
  special bonds CPU = 0.004 seconds
  read_data CPU = 0.367 seconds
Finding SHAKE clusters ...
    1617 = # of size 2 clusters
    3633 = # of size 3 clusters
     747 = # of size 4 clusters
    4233 = # of frozen angles
  find clusters CPU = 0.003 seconds

CITE-CITE-CITE-CITE-CITE-CITE-CITE-CITE-CITE-CITE-CITE-CITE-CITE

Your simulation uses code contributions which should be cited:
- GPU package (short-range, long-range and three-body potentials):
The log file lists these citations in BibTeX format.

CITE-CITE-CITE-CITE-CITE-CITE-CITE-CITE-CITE-CITE-CITE-CITE-CITE

PPPM initialization ...
  using 12-bit tables for long-range coulomb (../kspace.cpp:340)
  G vector (1/distance) = 0.32967033
  grid = 72 90 90
  stencil order = 5
  estimated absolute RMS force accuracy = 0.00033110871
  estimated relative force accuracy = 9.9712404e-07
  using single precision MKL FFT
  3d grid and FFT values/proc = 82732 51840

--------------------------------------------------------------------------
- Using acceleration for pppm:
-  with 6 proc(s) per device.
-  Horizontal vector operations: ENABLED
-  Shared memory system: No
--------------------------------------------------------------------------
Device 0: Tesla V100-SXM2-16GB, 80 CUs, 14/16 GB, 1.5 GHZ (Mixed Precision)
Device 1: Tesla V100-SXM2-16GB, 80 CUs, 1.5 GHZ (Mixed Precision)
--------------------------------------------------------------------------

Initializing Device and compiling on process 0...Done.
Initializing Devices 0-1 on core 0...Done.
Initializing Devices 0-1 on core 1...Done.
Initializing Devices 0-1 on core 2...Done.
Initializing Devices 0-1 on core 3...Done.
Initializing Devices 0-1 on core 4...Done.
Initializing Devices 0-1 on core 5...Done.


--------------------------------------------------------------------------
- Using acceleration for lj/charmm/coul/long:
-  with 6 proc(s) per device.
-  Horizontal vector operations: ENABLED
-  Shared memory system: No
--------------------------------------------------------------------------
Device 0: Tesla V100-SXM2-16GB, 80 CUs, 14/16 GB, 1.5 GHZ (Mixed Precision)
Device 1: Tesla V100-SXM2-16GB, 80 CUs, 1.5 GHZ (Mixed Precision)
--------------------------------------------------------------------------

Initializing Device and compiling on process 0...Done.
Initializing Devices 0-1 on core 0...Done.
Initializing Devices 0-1 on core 1...Done.
Initializing Devices 0-1 on core 2...Done.
Initializing Devices 0-1 on core 3...Done.
Initializing Devices 0-1 on core 4...Done.
Initializing Devices 0-1 on core 5...Done.

  generated 2278 of 2278 mixed pair_coeff terms from arithmetic mixing rule
Setting up Verlet run ...
  Unit style    : real
  Current step  : 0
  Time step     : 2
Per MPI rank memory allocation (min/avg/max) = 23.16 | 23.35 | 23.6 Mbytes
---------------- Step        0 ----- CPU =      0.0000 (sec) ----------------
TotEng   =    -25359.0978 KinEng   =     21444.8313 Temp     =       299.0397 
PotEng   =    -46803.9291 E_bond   =      2537.9940 E_angle  =     10921.3742 
E_dihed  =      5211.7865 E_impro  =       213.5116 E_vdwl   =     -2307.8635 
E_coul   =    294294.0666 E_long   =   -357674.7985 Press    =      -152.9661 
Volume   =    307995.0335 
---------------- Step       50 ----- CPU =      0.9789 (sec) ----------------
TotEng   =    -25333.6602 KinEng   =     21500.8939 Temp     =       299.8214 
PotEng   =    -46834.5540 E_bond   =      2471.6326 E_angle  =     10836.6403 
E_dihed  =      5239.4606 E_impro  =       227.1404 E_vdwl   =     -1992.5567 
E_coul   =    294073.9461 E_long   =   -357690.8174 Press    =       234.6844 
Volume   =    308031.1064 
---------------- Step      100 ----- CPU =      1.9374 (sec) ----------------
TotEng   =    -25290.0441 KinEng   =     21590.6684 Temp     =       301.0733 
PotEng   =    -46880.7125 E_bond   =      2567.7681 E_angle  =     10781.2387 
E_dihed  =      5198.4918 E_impro  =       216.7766 E_vdwl   =     -1900.4338 
E_coul   =    293940.1169 E_long   =   -357684.6707 Press    =        11.9361 
Volume   =    308132.4395 
---------------- Step      150 ----- CPU =      2.8707 (sec) ----------------
TotEng   =    -25258.0448 KinEng   =     21543.4849 Temp     =       300.4154 
PotEng   =    -46801.5297 E_bond   =      2555.8885 E_angle  =     10855.4663 
E_dihed  =      5263.9551 E_impro  =       203.1505 E_vdwl   =     -2069.5108 
E_coul   =    294057.2370 E_long   =   -357667.7164 Press    =       242.0793 
Volume   =    308516.0638 
---------------- Step      200 ----- CPU =      3.8313 (sec) ----------------
TotEng   =    -25058.6896 KinEng   =     21486.1101 Temp     =       299.6153 
PotEng   =    -46544.7997 E_bond   =      2492.2839 E_angle  =     11072.5739 
E_dihed  =      5224.5006 E_impro  =       232.2266 E_vdwl   =     -2111.0649 
E_coul   =    294236.0804 E_long   =   -357691.4001 Press    =       108.8118 
Volume   =    308993.6772 
---------------- Step      250 ----- CPU =      4.7842 (sec) ----------------
TotEng   =    -24886.4240 KinEng   =     21595.5078 Temp     =       301.1408 
PotEng   =    -46481.9319 E_bond   =      2554.1467 E_angle  =     11113.6186 
E_dihed  =      5250.8147 E_impro  =       221.9908 E_vdwl   =     -2169.4331 
E_coul   =    294228.5634 E_long   =   -357681.6330 Press    =      -160.7219 
Volume   =    309421.7206 
---------------- Step      300 ----- CPU =      5.7064 (sec) ----------------
TotEng   =    -24887.1306 KinEng   =     21596.2764 Temp     =       301.1515 
PotEng   =    -46483.4070 E_bond   =      2569.2975 E_angle  =     10908.4627 
E_dihed  =      5218.9301 E_impro  =       226.4759 E_vdwl   =     -2171.5949 
E_coul   =    294422.1127 E_long   =   -357657.0910 Press    =      -372.5376 
Volume   =    309818.1807 
---------------- Step      350 ----- CPU =      6.6625 (sec) ----------------
TotEng   =    -25096.4404 KinEng   =     21602.0332 Temp     =       301.2318 
PotEng   =    -46698.4736 E_bond   =      2585.6914 E_angle  =     10951.8399 
E_dihed  =      5198.2385 E_impro  =       209.0174 E_vdwl   =     -2118.6667 
E_coul   =    294153.3399 E_long   =   -357677.9341 Press    =      -370.8592 
Volume   =    310109.1687 
---------------- Step      400 ----- CPU =      7.6230 (sec) ----------------
TotEng   =    -25382.9062 KinEng   =     21425.4032 Temp     =       298.7688 
PotEng   =    -46808.3095 E_bond   =      2526.7620 E_angle  =     10960.2809 
E_dihed  =      5178.5549 E_impro  =       221.4990 E_vdwl   =     -2095.6991 
E_coul   =    294073.7627 E_long   =   -357673.4699 Press    =       209.2079 
Volume   =    310211.3793 
---------------- Step      450 ----- CPU =      8.5530 (sec) ----------------
TotEng   =    -25481.1420 KinEng   =     21374.5713 Temp     =       298.0599 
PotEng   =    -46855.7133 E_bond   =      2522.3246 E_angle  =     10820.1010 
E_dihed  =      5291.4563 E_impro  =       219.1421 E_vdwl   =     -2218.9747 
E_coul   =    294190.1425 E_long   =   -357679.9051 Press    =       122.8803 
Volume   =    310175.2605 
---------------- Step      500 ----- CPU =      9.4776 (sec) ----------------
TotEng   =    -25157.9465 KinEng   =     21388.8268 Temp     =       298.2587 
PotEng   =    -46546.7732 E_bond   =      2603.8900 E_angle  =     10960.6844 
E_dihed  =      5251.9679 E_impro  =       218.4219 E_vdwl   =     -2270.6590 
E_coul   =    294337.2483 E_long   =   -357648.3267 Press    =      -441.4634 
Volume   =    310132.6147 
---------------- Step      550 ----- CPU =     10.4097 (sec) ----------------
TotEng   =    -24798.9350 KinEng   =     21833.8507 Temp     =       304.4644 
PotEng   =    -46632.7857 E_bond   =      2528.9879 E_angle  =     10933.8244 
E_dihed  =      5254.3435 E_impro  =       231.0271 E_vdwl   =     -2059.4847 
E_coul   =    294146.6790 E_long   =   -357668.1629 Press    =       306.7943 
Volume   =    309986.6486 
---------------- Step      600 ----- CPU =     11.3811 (sec) ----------------
TotEng   =    -24747.0397 KinEng   =     21766.2736 Temp     =       303.5221 
PotEng   =    -46513.3134 E_bond   =      2574.8463 E_angle  =     11049.0312 
E_dihed  =      5232.4213 E_impro  =       218.3044 E_vdwl   =     -2106.9420 
E_coul   =    294211.4938 E_long   =   -357692.4684 Press    =       131.4895 
Volume   =    309932.5873 
Loop time of 11.3812 on 12 procs for 600 steps with 32000 atoms

Performance: 9.110 ns/day, 2.635 hours/ns, 52.719 timesteps/s
97.5% CPU use with 12 MPI tasks x 1 OpenMP threads

MPI task timing breakdown:
Section |  min time  |  avg time  |  max time  |%varavg| %total
---------------------------------------------------------------
Pair    | 0.85029    | 0.97461    | 1.076      |   6.2 |  8.56
Bond    | 0.57501    | 0.63274    | 0.70585    |   5.4 |  5.56
Kspace  | 4.5131     | 4.5956     | 4.6881     |   2.4 | 40.38
Neigh   | 0.054913   | 0.055793   | 0.056435   |   0.2 |  0.49
Comm    | 0.31268    | 0.44002    | 0.61417    |  17.2 |  3.87
Output  | 0.00099471 | 0.0010295  | 0.0013532  |   0.3 |  0.01
Modify  | 4.1376     | 4.4484     | 4.7592     |  11.7 | 39.09
Other   |            | 0.233      |            |       |  2.05

Nlocal:        2666.67 ave        2734 max        2606 min
Histogram: 2 1 1 1 3 0 1 0 1 2
Nghost:        13200.9 ave       13282 max       13133 min
Histogram: 1 3 1 0 0 2 3 1 0 1
Neighs:              0 ave           0 max           0 min
Histogram: 12 0 0 0 0 0 0 0 0 0

Total # of neighbors = 0
Ave neighs/atom = 0
Ave special neighs/atom = 7.431875
Neighbor list builds = 65
Dangerous builds = 0


---------------------------------------------------------------------
      Device Time Info (average): 
---------------------------------------------------------------------
Data Transfer:   0.0186 s.
Neighbor copy:   0.0662 s.
Neighbor build:  0.2433 s.
Force calc:      0.7775 s.
Device Overhead: 0.3970 s.
Average split:   1.0000.
Lanes / atom:    8.
Vector width:    32.
Max Mem / Proc:  13.19 MB.
CPU Neighbor:    0.0259 s.
CPU Cast/Pack:   0.0768 s.
CPU Driver_Time: 0.0102 s.
CPU Idle_Time:   0.0033 s.
---------------------------------------------------------------------



---------------------------------------------------------------------
    Device Time Info (average) for kspace: 
---------------------------------------------------------------------
Data Out:        0.0272 s.
Data In:         0.4729 s.
Kernel (map):    0.4901 s.
Kernel (rho):    0.0453 s.
Force interp:    0.2828 s.
Total rho:       0.5627 s.
Total interp:    0.7556 s.
Force copy:      0.0230 s.
Total:           1.3414 s.
CPU Poisson:     4.1168 s.
CPU Data Cast:   0.0072 s.
CPU Idle Time:   0.4466 s.
Max Mem / Proc:  11.52 MB.
---------------------------------------------------------------------

Total wall time: 0:00:22
