LAMMPS (7 Jan 2022)
  using 1 OpenMP thread(s) per MPI task
Reading data file ...
  orthogonal box = (-27.5 -38.5 -36.3646) to (27.5 38.5 36.3615)
  2 by 3 by 2 MPI processor grid
  reading atoms ...
  32000 atoms
  reading velocities ...
  32000 velocities
  scanning bonds ...
  4 = max bonds/atom
  scanning angles ...
  8 = max angles/atom
  scanning dihedrals ...
  18 = max dihedrals/atom
  scanning impropers ...
  2 = max impropers/atom
  reading bonds ...
  27723 bonds
  reading angles ...
  40467 angles
  reading dihedrals ...
  56829 dihedrals
  reading impropers ...
  1034 impropers
Finding 1-2 1-3 1-4 neighbors ...
  special bond factors lj:    0        0        0       
  special bond factors coul:  0        0        0       
     4 = max # of 1-2 neighbors
    12 = max # of 1-3 neighbors
    24 = max # of 1-4 neighbors
    26 = max # of special neighbors
  special bonds CPU = 0.004 seconds
  read_data CPU = 0.369 seconds
Finding SHAKE clusters ...
    1617 = # of size 2 clusters
    3633 = # of size 3 clusters
     747 = # of size 4 clusters
    4233 = # of frozen angles
  find clusters CPU = 0.003 seconds

CITE-CITE-CITE-CITE-CITE-CITE-CITE-CITE-CITE-CITE-CITE-CITE-CITE

Your simulation uses code contributions which should be cited:
- GPU package (short-range, long-range and three-body potentials):
The log file lists these citations in BibTeX format.

CITE-CITE-CITE-CITE-CITE-CITE-CITE-CITE-CITE-CITE-CITE-CITE-CITE

PPPM initialization ...
  using 12-bit tables for long-range coulomb (../kspace.cpp:340)
  G vector (1/distance) = 0.32967033
  grid = 72 90 90
  stencil order = 5
  estimated absolute RMS force accuracy = 0.00033110871
  estimated relative force accuracy = 9.9712404e-07
  using single precision MKL FFT
  3d grid and FFT values/proc = 82732 51840

--------------------------------------------------------------------------
- Using acceleration for pppm:
-  with 6 proc(s) per device.
-  Horizontal vector operations: ENABLED
-  Shared memory system: No
--------------------------------------------------------------------------
Device 0: Tesla V100-SXM2-16GB, 80 CUs, 14/16 GB, 1.5 GHZ (Mixed Precision)
Device 1: Tesla V100-SXM2-16GB, 80 CUs, 1.5 GHZ (Mixed Precision)
--------------------------------------------------------------------------

Initializing Device and compiling on process 0...Done.
Initializing Devices 0-1 on core 0...Done.
Initializing Devices 0-1 on core 1...Done.
Initializing Devices 0-1 on core 2...Done.
Initializing Devices 0-1 on core 3...Done.
Initializing Devices 0-1 on core 4...Done.
Initializing Devices 0-1 on core 5...Done.


--------------------------------------------------------------------------
- Using acceleration for lj/charmm/coul/long:
-  with 6 proc(s) per device.
-  Horizontal vector operations: ENABLED
-  Shared memory system: No
--------------------------------------------------------------------------
Device 0: Tesla V100-SXM2-16GB, 80 CUs, 14/16 GB, 1.5 GHZ (Mixed Precision)
Device 1: Tesla V100-SXM2-16GB, 80 CUs, 1.5 GHZ (Mixed Precision)
--------------------------------------------------------------------------

Initializing Device and compiling on process 0...Done.
Initializing Devices 0-1 on core 0...Done.
Initializing Devices 0-1 on core 1...Done.
Initializing Devices 0-1 on core 2...Done.
Initializing Devices 0-1 on core 3...Done.
Initializing Devices 0-1 on core 4...Done.
Initializing Devices 0-1 on core 5...Done.

  generated 2278 of 2278 mixed pair_coeff terms from arithmetic mixing rule
Setting up Verlet run ...
  Unit style    : real
  Current step  : 0
  Time step     : 2
Per MPI rank memory allocation (min/avg/max) = 23.16 | 23.35 | 23.6 Mbytes
---------------- Step        0 ----- CPU =      0.0000 (sec) ----------------
TotEng   =    -25359.0978 KinEng   =     21444.8313 Temp     =       299.0397 
PotEng   =    -46803.9291 E_bond   =      2537.9940 E_angle  =     10921.3742 
E_dihed  =      5211.7865 E_impro  =       213.5116 E_vdwl   =     -2307.8635 
E_coul   =    294294.0666 E_long   =   -357674.7985 Press    =      -152.9661 
Volume   =    307995.0335 
---------------- Step       50 ----- CPU =      0.9943 (sec) ----------------
TotEng   =    -25333.6627 KinEng   =     21500.8940 Temp     =       299.8214 
PotEng   =    -46834.5567 E_bond   =      2471.6326 E_angle  =     10836.6403 
E_dihed  =      5239.4606 E_impro  =       227.1404 E_vdwl   =     -1992.5566 
E_coul   =    294073.9435 E_long   =   -357690.8175 Press    =       234.6844 
Volume   =    308031.1064 
---------------- Step      100 ----- CPU =      1.9530 (sec) ----------------
TotEng   =    -25290.0427 KinEng   =     21590.6682 Temp     =       301.0733 
PotEng   =    -46880.7108 E_bond   =      2567.7681 E_angle  =     10781.2387 
E_dihed  =      5198.4918 E_impro  =       216.7766 E_vdwl   =     -1900.4333 
E_coul   =    293940.1179 E_long   =   -357684.6706 Press    =        11.9371 
Volume   =    308132.4394 
---------------- Step      150 ----- CPU =      2.8816 (sec) ----------------
TotEng   =    -25258.0461 KinEng   =     21543.4865 Temp     =       300.4154 
PotEng   =    -46801.5326 E_bond   =      2555.8885 E_angle  =     10855.4661 
E_dihed  =      5263.9551 E_impro  =       203.1505 E_vdwl   =     -2069.5122 
E_coul   =    294057.2356 E_long   =   -357667.7163 Press    =       242.0779 
Volume   =    308516.0637 
---------------- Step      200 ----- CPU =      3.8438 (sec) ----------------
TotEng   =    -25058.6850 KinEng   =     21486.0961 Temp     =       299.6151 
PotEng   =    -46544.7811 E_bond   =      2492.2834 E_angle  =     11072.5740 
E_dihed  =      5224.5013 E_impro  =       232.2272 E_vdwl   =     -2111.0809 
E_coul   =    294236.1135 E_long   =   -357691.3996 Press    =       108.8030 
Volume   =    308993.6751 
---------------- Step      250 ----- CPU =      4.7806 (sec) ----------------
TotEng   =    -24886.4005 KinEng   =     21595.5605 Temp     =       301.1415 
PotEng   =    -46481.9610 E_bond   =      2554.1488 E_angle  =     11113.6207 
E_dihed  =      5250.8153 E_impro  =       221.9917 E_vdwl   =     -2169.4130 
E_coul   =    294228.5217 E_long   =   -357681.6462 Press    =      -160.7234 
Volume   =    309421.6940 
---------------- Step      300 ----- CPU =      5.7020 (sec) ----------------
TotEng   =    -24887.0723 KinEng   =     21596.2300 Temp     =       301.1509 
PotEng   =    -46483.3023 E_bond   =      2569.3067 E_angle  =     10908.4723 
E_dihed  =      5218.9149 E_impro  =       226.4701 E_vdwl   =     -2171.7852 
E_coul   =    294422.4098 E_long   =   -357657.0908 Press    =      -372.4609 
Volume   =    309818.1401 
---------------- Step      350 ----- CPU =      6.6379 (sec) ----------------
TotEng   =    -25095.3989 KinEng   =     21603.0261 Temp     =       301.2456 
PotEng   =    -46698.4250 E_bond   =      2585.5637 E_angle  =     10951.6488 
E_dihed  =      5198.6028 E_impro  =       208.9092 E_vdwl   =     -2116.8516 
E_coul   =    294152.4818 E_long   =   -357678.7796 Press    =      -369.0038 
Volume   =    310109.1812 
---------------- Step      400 ----- CPU =      7.6045 (sec) ----------------
TotEng   =    -25382.5420 KinEng   =     21423.1741 Temp     =       298.7377 
PotEng   =    -46805.7161 E_bond   =      2526.2106 E_angle  =     10960.5487 
E_dihed  =      5178.5355 E_impro  =       221.6282 E_vdwl   =     -2081.9469 
E_coul   =    294062.5379 E_long   =   -357673.2302 Press    =       221.7842 
Volume   =    310214.1901 
---------------- Step      450 ----- CPU =      8.5248 (sec) ----------------
TotEng   =    -25485.2087 KinEng   =     21358.4894 Temp     =       297.8357 
PotEng   =    -46843.6982 E_bond   =      2522.6200 E_angle  =     10818.4757 
E_dihed  =      5292.0723 E_impro  =       218.7743 E_vdwl   =     -2206.1042 
E_coul   =    294192.8602 E_long   =   -357682.3964 Press    =       147.0692 
Volume   =    310188.0746 
---------------- Step      500 ----- CPU =      9.4548 (sec) ----------------
TotEng   =    -25174.4485 KinEng   =     21392.3876 Temp     =       298.3084 
PotEng   =    -46566.8362 E_bond   =      2605.2525 E_angle  =     10959.5840 
E_dihed  =      5247.9675 E_impro  =       219.9093 E_vdwl   =     -2311.4495 
E_coul   =    294375.0702 E_long   =   -357663.1702 Press    =      -473.0474 
Volume   =    310151.9815 
---------------- Step      550 ----- CPU =     10.3824 (sec) ----------------
TotEng   =    -24835.1361 KinEng   =     21761.3144 Temp     =       303.4529 
PotEng   =    -46596.4505 E_bond   =      2531.6360 E_angle  =     10948.8956 
E_dihed  =      5247.0296 E_impro  =       231.8170 E_vdwl   =     -2037.2139 
E_coul   =    294130.9793 E_long   =   -357649.5941 Press    =       345.0950 
Volume   =    310014.7801 
---------------- Step      600 ----- CPU =     11.3479 (sec) ----------------
TotEng   =    -24732.0964 KinEng   =     21763.9270 Temp     =       303.4893 
PotEng   =    -46496.0234 E_bond   =      2583.8178 E_angle  =     11033.4003 
E_dihed  =      5230.1423 E_impro  =       221.4385 E_vdwl   =     -2050.5748 
E_coul   =    294165.3007 E_long   =   -357679.5483 Press    =       109.2008 
Volume   =    310003.1103 
Loop time of 11.348 on 12 procs for 600 steps with 32000 atoms

Performance: 9.136 ns/day, 2.627 hours/ns, 52.873 timesteps/s
97.6% CPU use with 12 MPI tasks x 1 OpenMP threads

MPI task timing breakdown:
Section |  min time  |  avg time  |  max time  |%varavg| %total
---------------------------------------------------------------
Pair    | 0.80535    | 0.97905    | 1.1272     |   9.0 |  8.63
Bond    | 0.57373    | 0.63709    | 0.75392    |   5.9 |  5.61
Kspace  | 4.4337     | 4.5425     | 4.611      |   2.2 | 40.03
Neigh   | 0.053545   | 0.054484   | 0.05547    |   0.3 |  0.48
Comm    | 0.30102    | 0.42171    | 0.55412    |  17.3 |  3.72
Output  | 0.00097576 | 0.0010135  | 0.0013515  |   0.3 |  0.01
Modify  | 4.0762     | 4.4591     | 4.7952     |  11.9 | 39.29
Other   |            | 0.253      |            |       |  2.23

Nlocal:        2666.67 ave        2740 max        2608 min
Histogram: 1 1 1 4 1 1 0 1 1 1
Nghost:        13191.7 ave       13285 max       13124 min
Histogram: 2 2 1 0 1 2 3 0 0 1
Neighs:              0 ave           0 max           0 min
Histogram: 12 0 0 0 0 0 0 0 0 0

Total # of neighbors = 0
Ave neighs/atom = 0
Ave special neighs/atom = 7.431875
Neighbor list builds = 65
Dangerous builds = 0


---------------------------------------------------------------------
      Device Time Info (average): 
---------------------------------------------------------------------
Data Transfer:   0.0185 s.
Neighbor copy:   0.0665 s.
Neighbor build:  0.2438 s.
Force calc:      0.7772 s.
Device Overhead: 0.3953 s.
Average split:   1.0000.
Lanes / atom:    8.
Vector width:    32.
Max Mem / Proc:  13.19 MB.
CPU Neighbor:    0.0266 s.
CPU Cast/Pack:   0.0769 s.
CPU Driver_Time: 0.0104 s.
CPU Idle_Time:   0.0034 s.
---------------------------------------------------------------------



---------------------------------------------------------------------
    Device Time Info (average) for kspace: 
---------------------------------------------------------------------
Data Out:        0.0279 s.
Data In:         0.4734 s.
Kernel (map):    0.4941 s.
Kernel (rho):    0.0453 s.
Force interp:    0.2837 s.
Total rho:       0.5673 s.
Total interp:    0.7570 s.
Force copy:      0.0226 s.
Total:           1.3470 s.
CPU Poisson:     4.0647 s.
CPU Data Cast:   0.0072 s.
CPU Idle Time:   0.4472 s.
Max Mem / Proc:  11.52 MB.
---------------------------------------------------------------------

Total wall time: 0:00:22
