LAMMPS (7 Jan 2022)
  using 1 OpenMP thread(s) per MPI task
Reading data file ...
  orthogonal box = (-27.5 -38.5 -36.3646) to (27.5 38.5 36.3615)
  3 by 4 by 3 MPI processor grid
  reading atoms ...
  32000 atoms
  reading velocities ...
  32000 velocities
  scanning bonds ...
  4 = max bonds/atom
  scanning angles ...
  8 = max angles/atom
  scanning dihedrals ...
  18 = max dihedrals/atom
  scanning impropers ...
  2 = max impropers/atom
  reading bonds ...
  27723 bonds
  reading angles ...
  40467 angles
  reading dihedrals ...
  56829 dihedrals
  reading impropers ...
  1034 impropers
Finding 1-2 1-3 1-4 neighbors ...
  special bond factors lj:    0        0        0       
  special bond factors coul:  0        0        0       
     4 = max # of 1-2 neighbors
    12 = max # of 1-3 neighbors
    24 = max # of 1-4 neighbors
    26 = max # of special neighbors
  special bonds CPU = 0.006 seconds
  read_data CPU = 0.368 seconds
Replicating atoms ...
  orthogonal box = (-27.5 -38.5 -36.3646) to (137.5 192.5 181.8137)
  3 by 4 by 3 MPI processor grid
  864000 atoms
  748521 bonds
  1092609 angles
  1534383 dihedrals
  27918 impropers
Finding 1-2 1-3 1-4 neighbors ...
  special bond factors lj:    0        0        0       
  special bond factors coul:  0        0        0       
     4 = max # of 1-2 neighbors
    12 = max # of 1-3 neighbors
    24 = max # of 1-4 neighbors
    26 = max # of special neighbors
  special bonds CPU = 0.048 seconds
  replicate CPU = 0.112 seconds
Finding SHAKE clusters ...
   43659 = # of size 2 clusters
   98091 = # of size 3 clusters
   20169 = # of size 4 clusters
  114291 = # of frozen angles
  find clusters CPU = 0.023 seconds

CITE-CITE-CITE-CITE-CITE-CITE-CITE-CITE-CITE-CITE-CITE-CITE-CITE

Your simulation uses code contributions which should be cited:
- GPU package (short-range, long-range and three-body potentials):
The log file lists these citations in BibTeX format.

CITE-CITE-CITE-CITE-CITE-CITE-CITE-CITE-CITE-CITE-CITE-CITE-CITE

PPPM initialization ...
  using 12-bit tables for long-range coulomb (../kspace.cpp:340)
  G vector (1/distance) = 0.32507726
  grid = 200 256 250
  stencil order = 5
  estimated absolute RMS force accuracy = 0.00044709937
  estimated relative force accuracy = 1.3464265e-06
  using single precision MKL FFT
  3d grid and FFT values/proc = 484575 360192

--------------------------------------------------------------------------
- Using acceleration for pppm:
-  with 18 proc(s) per device.
-  Horizontal vector operations: ENABLED
-  Shared memory system: No
--------------------------------------------------------------------------
Device 0: Tesla V100-SXM2-16GB, 80 CUs, 10/16 GB, 1.5 GHZ (Mixed Precision)
Device 1: Tesla V100-SXM2-16GB, 80 CUs, 1.5 GHZ (Mixed Precision)
--------------------------------------------------------------------------

Initializing Device and compiling on process 0...Done.
Initializing Devices 0-1 on core 0...Done.
Initializing Devices 0-1 on core 1...Done.
Initializing Devices 0-1 on core 2...Done.
Initializing Devices 0-1 on core 3...Done.
Initializing Devices 0-1 on core 4...Done.
Initializing Devices 0-1 on core 5...Done.
Initializing Devices 0-1 on core 6...Done.
Initializing Devices 0-1 on core 7...Done.
Initializing Devices 0-1 on core 8...Done.
Initializing Devices 0-1 on core 9...Done.
Initializing Devices 0-1 on core 10...Done.
Initializing Devices 0-1 on core 11...Done.
Initializing Devices 0-1 on core 12...Done.
Initializing Devices 0-1 on core 13...Done.
Initializing Devices 0-1 on core 14...Done.
Initializing Devices 0-1 on core 15...Done.
Initializing Devices 0-1 on core 16...Done.
Initializing Devices 0-1 on core 17...Done.


--------------------------------------------------------------------------
- Using acceleration for lj/charmm/coul/long:
-  with 18 proc(s) per device.
-  Horizontal vector operations: ENABLED
-  Shared memory system: No
--------------------------------------------------------------------------
Device 0: Tesla V100-SXM2-16GB, 80 CUs, 9.1/16 GB, 1.5 GHZ (Mixed Precision)
Device 1: Tesla V100-SXM2-16GB, 80 CUs, 1.5 GHZ (Mixed Precision)
--------------------------------------------------------------------------

Initializing Device and compiling on process 0...Done.
Initializing Devices 0-1 on core 0...Done.
Initializing Devices 0-1 on core 1...Done.
Initializing Devices 0-1 on core 2...Done.
Initializing Devices 0-1 on core 3...Done.
Initializing Devices 0-1 on core 4...Done.
Initializing Devices 0-1 on core 5...Done.
Initializing Devices 0-1 on core 6...Done.
Initializing Devices 0-1 on core 7...Done.
Initializing Devices 0-1 on core 8...Done.
Initializing Devices 0-1 on core 9...Done.
Initializing Devices 0-1 on core 10...Done.
Initializing Devices 0-1 on core 11...Done.
Initializing Devices 0-1 on core 12...Done.
Initializing Devices 0-1 on core 13...Done.
Initializing Devices 0-1 on core 14...Done.
Initializing Devices 0-1 on core 15...Done.
Initializing Devices 0-1 on core 16...Done.
Initializing Devices 0-1 on core 17...Done.

  generated 2278 of 2278 mixed pair_coeff terms from arithmetic mixing rule
Setting up Verlet run ...
  Unit style    : real
  Current step  : 0
  Time step     : 2
Per MPI rank memory allocation (min/avg/max) = 107.6 | 108 | 108.4 Mbytes
---------------- Step        0 ----- CPU =      0.0000 (sec) ----------------
TotEng   =   -684695.4967 KinEng   =    579010.4447 Temp     =       299.0277 
PotEng   =  -1263705.9413 E_bond   =     68525.8383 E_angle  =    294877.1036 
E_dihed  =    140718.2355 E_impro  =      5764.8128 E_vdwl   =    -62312.3570 
E_coul   =   7812612.7547 E_long   =  -9523892.3293 Press    =      -152.9546 
Volume   =   8315865.9045 
---------------- Step       50 ----- CPU =     10.6236 (sec) ----------------
TotEng   =   -683987.8625 KinEng   =    580535.6697 Temp     =       299.8154 
PotEng   =  -1264523.5322 E_bond   =     66735.0904 E_angle  =    292593.1142 
E_dihed  =    141466.0938 E_impro  =      6132.8860 E_vdwl   =    -53797.7985 
E_coul   =   7806653.0554 E_long   =  -9524305.9735 Press    =       234.7859 
Volume   =   8316840.0980 
---------------- Step      100 ----- CPU =     21.1588 (sec) ----------------
TotEng   =   -682767.3557 KinEng   =    582979.1852 Temp     =       301.0773 
PotEng   =  -1265746.5409 E_bond   =     69332.9551 E_angle  =    291105.3782 
E_dihed  =    140361.6492 E_impro  =      5853.2052 E_vdwl   =    -51309.4196 
E_coul   =   7803046.6632 E_long   =  -9524136.9722 Press    =        12.1781 
Volume   =   8319578.3210 
Loop time of 21.1589 on 36 procs for 100 steps with 864000 atoms

Performance: 0.817 ns/day, 29.387 hours/ns, 4.726 timesteps/s
97.1% CPU use with 36 MPI tasks x 1 OpenMP threads

MPI task timing breakdown:
Section |  min time  |  avg time  |  max time  |%varavg| %total
---------------------------------------------------------------
Pair    | 1.6087     | 2.1813     | 2.3493     |   8.4 | 10.31
Bond    | 0.78546    | 0.8149     | 0.85569    |   2.2 |  3.85
Kspace  | 11.365     | 11.406     | 11.439     |   0.6 | 53.91
Neigh   | 0.16893    | 0.17085    | 0.173      |   0.3 |  0.81
Comm    | 0.4488     | 0.51407    | 0.80512    |  10.2 |  2.43
Output  | 0.00037337 | 0.00038818 | 0.00045067 |   0.0 |  0.00
Modify  | 5.0074     | 5.7731     | 6.3834     |   8.3 | 27.28
Other   |            | 0.2984     |            |       |  1.41

Nlocal:          24000 ave       24064 max       23925 min
Histogram: 9 0 0 9 0 0 0 0 9 9
Nghost:        40677.3 ave       40795 max       40537 min
Histogram: 9 0 0 0 9 0 0 9 0 9
Neighs:              0 ave           0 max           0 min
Histogram: 36 0 0 0 0 0 0 0 0 0

Total # of neighbors = 0
Ave neighs/atom = 0
Ave special neighs/atom = 7.431875
Neighbor list builds = 11
Dangerous builds = 0


---------------------------------------------------------------------
      Device Time Info (average): 
---------------------------------------------------------------------
Data Transfer:   0.0114 s.
Neighbor copy:   0.1195 s.
Neighbor build:  0.2272 s.
Force calc:      0.7672 s.
Device Overhead: 0.1805 s.
Average split:   1.0000.
Lanes / atom:    8.
Vector width:    32.
Max Mem / Proc:  116.14 MB.
CPU Neighbor:    0.0570 s.
CPU Cast/Pack:   0.1075 s.
CPU Driver_Time: 0.0021 s.
CPU Idle_Time:   0.0011 s.
---------------------------------------------------------------------



---------------------------------------------------------------------
    Device Time Info (average) for kspace: 
---------------------------------------------------------------------
Data Out:        0.0256 s.
Data In:         2.0252 s.
Kernel (map):    0.4732 s.
Kernel (rho):    0.0269 s.
Force interp:    0.0251 s.
Total rho:       0.5257 s.
Total interp:    2.0503 s.
Force copy:      0.0188 s.
Total:           2.5948 s.
CPU Poisson:     11.1060 s.
CPU Data Cast:   0.0123 s.
CPU Idle Time:   0.3864 s.
Max Mem / Proc:  76.39 MB.
---------------------------------------------------------------------

Total wall time: 0:00:56
