LAMMPS (7 Jan 2022)
  using 1 OpenMP thread(s) per MPI task
Reading data file ...
  orthogonal box = (-27.5 -38.5 -36.3646) to (27.5 38.5 36.3615)
  3 by 4 by 4 MPI processor grid
  reading atoms ...
  32000 atoms
  reading velocities ...
  32000 velocities
  scanning bonds ...
  4 = max bonds/atom
  scanning angles ...
  8 = max angles/atom
  scanning dihedrals ...
  18 = max dihedrals/atom
  scanning impropers ...
  2 = max impropers/atom
  reading bonds ...
  27723 bonds
  reading angles ...
  40467 angles
  reading dihedrals ...
  56829 dihedrals
  reading impropers ...
  1034 impropers
Finding 1-2 1-3 1-4 neighbors ...
  special bond factors lj:    0        0        0       
  special bond factors coul:  0        0        0       
     4 = max # of 1-2 neighbors
    12 = max # of 1-3 neighbors
    24 = max # of 1-4 neighbors
    26 = max # of special neighbors
  special bonds CPU = 0.006 seconds
  read_data CPU = 0.366 seconds
Replicating atoms ...
  orthogonal box = (-27.5 -38.5 -36.3646) to (137.5 192.5 181.8137)
  3 by 4 by 4 MPI processor grid
  864000 atoms
  748521 bonds
  1092609 angles
  1534383 dihedrals
  27918 impropers
Finding 1-2 1-3 1-4 neighbors ...
  special bond factors lj:    0        0        0       
  special bond factors coul:  0        0        0       
     4 = max # of 1-2 neighbors
    12 = max # of 1-3 neighbors
    24 = max # of 1-4 neighbors
    26 = max # of special neighbors
  special bonds CPU = 0.051 seconds
  replicate CPU = 0.121 seconds
Finding SHAKE clusters ...
   43659 = # of size 2 clusters
   98091 = # of size 3 clusters
   20169 = # of size 4 clusters
  114291 = # of frozen angles
  find clusters CPU = 0.019 seconds

CITE-CITE-CITE-CITE-CITE-CITE-CITE-CITE-CITE-CITE-CITE-CITE-CITE

Your simulation uses code contributions which should be cited:
- GPU package (short-range, long-range and three-body potentials):
The log file lists these citations in BibTeX format.

CITE-CITE-CITE-CITE-CITE-CITE-CITE-CITE-CITE-CITE-CITE-CITE-CITE

PPPM initialization ...
  using 12-bit tables for long-range coulomb (../kspace.cpp:340)
  G vector (1/distance) = 0.36027777
  grid = 360 432 432
  stencil order = 5
  estimated absolute RMS force accuracy = 4.1250989e-05
  estimated relative force accuracy = 1.2422613e-07
  using single precision MKL FFT
  3d grid and FFT values/proc = 1765881 1399680

--------------------------------------------------------------------------
- Using acceleration for pppm:
-  with 8 proc(s) per device.
-  Horizontal vector operations: ENABLED
-  Shared memory system: No
--------------------------------------------------------------------------
Device 0: Tesla V100-SXM2-16GB, 80 CUs, 13/16 GB, 1.5 GHZ (Mixed Precision)
Device 1: Tesla V100-SXM2-16GB, 80 CUs, 1.5 GHZ (Mixed Precision)
Device 2: Tesla V100-SXM2-16GB, 80 CUs, 1.5 GHZ (Mixed Precision)
Device 3: Tesla V100-SXM2-16GB, 80 CUs, 1.5 GHZ (Mixed Precision)
Device 4: Tesla V100-SXM2-16GB, 80 CUs, 1.5 GHZ (Mixed Precision)
Device 5: Tesla V100-SXM2-16GB, 80 CUs, 1.5 GHZ (Mixed Precision)
--------------------------------------------------------------------------

Initializing Device and compiling on process 0...Done.
Initializing Devices 0-5 on core 0...Done.
Initializing Devices 0-5 on core 1...Done.
Initializing Devices 0-5 on core 2...Done.
Initializing Devices 0-5 on core 3...Done.
Initializing Devices 0-5 on core 4...Done.
Initializing Devices 0-5 on core 5...Done.
Initializing Devices 0-5 on core 6...Done.
Initializing Devices 0-5 on core 7...Done.


--------------------------------------------------------------------------
- Using acceleration for lj/charmm/coul/long:
-  with 8 proc(s) per device.
-  Horizontal vector operations: ENABLED
-  Shared memory system: No
--------------------------------------------------------------------------
Device 0: Tesla V100-SXM2-16GB, 80 CUs, 11/16 GB, 1.5 GHZ (Mixed Precision)
Device 1: Tesla V100-SXM2-16GB, 80 CUs, 1.5 GHZ (Mixed Precision)
Device 2: Tesla V100-SXM2-16GB, 80 CUs, 1.5 GHZ (Mixed Precision)
Device 3: Tesla V100-SXM2-16GB, 80 CUs, 1.5 GHZ (Mixed Precision)
Device 4: Tesla V100-SXM2-16GB, 80 CUs, 1.5 GHZ (Mixed Precision)
Device 5: Tesla V100-SXM2-16GB, 80 CUs, 1.5 GHZ (Mixed Precision)
--------------------------------------------------------------------------

Initializing Device and compiling on process 0...Done.
Initializing Devices 0-5 on core 0...Done.
Initializing Devices 0-5 on core 1...Done.
Initializing Devices 0-5 on core 2...Done.
Initializing Devices 0-5 on core 3...Done.
Initializing Devices 0-5 on core 4...Done.
Initializing Devices 0-5 on core 5...Done.
Initializing Devices 0-5 on core 6...Done.
Initializing Devices 0-5 on core 7...Done.

  generated 2278 of 2278 mixed pair_coeff terms from arithmetic mixing rule
Setting up Verlet run ...
  Unit style    : real
  Current step  : 0
  Time step     : 2
Per MPI rank memory allocation (min/avg/max) = 203.2 | 203.2 | 203.2 Mbytes
---------------- Step        0 ----- CPU =      0.0000 (sec) ----------------
TotEng   =   -684694.7383 KinEng   =    579010.4447 Temp     =       299.0277 
PotEng   =  -1263705.1830 E_bond   =     68525.8383 E_angle  =    294877.1036 
E_dihed  =    140718.2355 E_impro  =      5764.8128 E_vdwl   =    -62312.3570 
E_coul   =   8831945.8807 E_long   = -10543224.6969 Press    =      -152.9956 
Volume   =   8315865.9045 
---------------- Step       50 ----- CPU =     47.9407 (sec) ----------------
TotEng   =   -683987.3878 KinEng   =    580535.6650 Temp     =       299.8154 
PotEng   =  -1264523.0528 E_bond   =     66735.0527 E_angle  =    292593.1819 
E_dihed  =    141466.0257 E_impro  =      6132.8950 E_vdwl   =    -53797.5119 
E_coul   =   8826137.9928 E_long   = -10543790.6889 Press    =       234.7473 
Volume   =   8316839.9247 
---------------- Step      100 ----- CPU =     95.2233 (sec) ----------------
TotEng   =   -682766.1250 KinEng   =    582982.6719 Temp     =       301.0791 
PotEng   =  -1265748.7969 E_bond   =     69332.9401 E_angle  =    291105.0935 
E_dihed  =    140361.5635 E_impro  =      5853.1888 E_vdwl   =    -51307.6596 
E_coul   =   8822553.0387 E_long   = -10543646.9619 Press    =        12.2350 
Volume   =   8319577.7181 
Loop time of 95.2234 on 48 procs for 100 steps with 864000 atoms

Performance: 0.181 ns/day, 132.255 hours/ns, 1.050 timesteps/s
92.9% CPU use with 48 MPI tasks x 1 OpenMP threads

MPI task timing breakdown:
Section |  min time  |  avg time  |  max time  |%varavg| %total
---------------------------------------------------------------
Pair    | 3.6491     | 6.0614     | 7.4181     |  68.8 |  6.37
Bond    | 0.51291    | 0.65285    | 0.80068    |  13.7 |  0.69
Kspace  | 60.9       | 61.265     | 61.612     |   2.2 | 64.34
Neigh   | 0.15722    | 0.16018    | 0.16151    |   0.3 |  0.17
Comm    | 1.7511     | 2.0548     | 2.3636     |   8.7 |  2.16
Output  | 0.00035213 | 0.00036329 | 0.00043137 |   0.0 |  0.00
Modify  | 20.662     | 22.159     | 25.025     |  36.0 | 23.27
Other   |            | 2.87       |            |       |  3.01

Nlocal:          18000 ave       18186 max       17781 min
Histogram: 3 3 3 9 3 9 3 9 3 3
Nghost:        34681.4 ave       34871 max       34417 min
Histogram: 3 3 0 6 6 6 3 9 3 9
Neighs:              0 ave           0 max           0 min
Histogram: 48 0 0 0 0 0 0 0 0 0

Total # of neighbors = 0
Ave neighs/atom = 0
Ave special neighs/atom = 7.431875
Neighbor list builds = 11
Dangerous builds = 0


---------------------------------------------------------------------
      Device Time Info (average): 
---------------------------------------------------------------------
Data Transfer:   0.1284 s.
Neighbor copy:   0.0660 s.
Neighbor build:  0.0900 s.
Force calc:      0.0849 s.
Device Overhead: 0.0902 s.
Average split:   1.0000.
Lanes / atom:    8.
Vector width:    32.
Max Mem / Proc:  86.59 MB.
CPU Neighbor:    0.0808 s.
CPU Cast/Pack:   0.0954 s.
CPU Driver_Time: 0.0016 s.
CPU Idle_Time:   0.0015 s.
---------------------------------------------------------------------



---------------------------------------------------------------------
    Device Time Info (average) for kspace: 
---------------------------------------------------------------------
Data Out:        0.7142 s.
Data In:         6.0597 s.
Kernel (map):    0.1982 s.
Kernel (rho):    0.0435 s.
Force interp:    0.0302 s.
Total rho:       0.9559 s.
Total interp:    6.0899 s.
Force copy:      0.0164 s.
Total:           7.0622 s.
CPU Poisson:     61.2165 s.
CPU Data Cast:   0.0078 s.
CPU Idle Time:   0.6319 s.
Max Mem / Proc:  285.15 MB.
---------------------------------------------------------------------

Total wall time: 0:02:21
