LAMMPS (7 Jan 2022)
  using 1 OpenMP thread(s) per MPI task
Reading data file ...
  orthogonal box = (-16.796 -16.796 -16.796) to (16.796 16.796 16.796)
  2 by 3 by 4 MPI processor grid
  reading atoms ...
  32000 atoms
  reading velocities ...
  32000 velocities
  scanning bonds ...
  1 = max bonds/atom
  reading bonds ...
  31680 bonds
Finding 1-2 1-3 1-4 neighbors ...
  special bond factors lj:    0        1        1       
  special bond factors coul:  0        1        1       
     2 = max # of 1-2 neighbors
     2 = max # of special neighbors
  special bonds CPU = 0.003 seconds
  read_data CPU = 0.189 seconds

CITE-CITE-CITE-CITE-CITE-CITE-CITE-CITE-CITE-CITE-CITE-CITE-CITE

Your simulation uses code contributions which should be cited:
- GPU package (short-range, long-range and three-body potentials):
The log file lists these citations in BibTeX format.

CITE-CITE-CITE-CITE-CITE-CITE-CITE-CITE-CITE-CITE-CITE-CITE-CITE


--------------------------------------------------------------------------
- Using acceleration for lj/cut:
-  with 3 proc(s) per device.
-  Horizontal vector operations: ENABLED
-  Shared memory system: No
--------------------------------------------------------------------------
Device 0: Tesla V100-SXM2-16GB, 80 CUs, 15/16 GB, 1.5 GHZ (Single Precision)
Device 1: Tesla V100-SXM2-16GB, 80 CUs, 1.5 GHZ (Single Precision)
Device 2: Tesla V100-SXM2-16GB, 80 CUs, 1.5 GHZ (Single Precision)
Device 3: Tesla V100-SXM2-16GB, 80 CUs, 1.5 GHZ (Single Precision)
Device 4: Tesla V100-SXM2-16GB, 80 CUs, 1.5 GHZ (Single Precision)
Device 5: Tesla V100-SXM2-16GB, 80 CUs, 1.5 GHZ (Single Precision)
Device 6: Tesla V100-SXM2-16GB, 80 CUs, 1.5 GHZ (Single Precision)
Device 7: Tesla V100-SXM2-16GB, 80 CUs, 1.5 GHZ (Single Precision)
--------------------------------------------------------------------------

Initializing Device and compiling on process 0...Done.
Initializing Devices 0-7 on core 0...Done.
Initializing Devices 0-7 on core 1...Done.
Initializing Devices 0-7 on core 2...Done.

  generated 0 of 0 mixed pair_coeff terms from geometric mixing rule
Setting up Verlet run ...
  Unit style    : lj
  Current step  : 0
  Time step     : 0.012
WARNING: Communication cutoff 1.52 is shorter than a bond length based estimate of 1.855. This may lead to errors. (../comm.cpp:723)
Per MPI rank memory allocation (min/avg/max) = 3.775 | 3.776 | 3.778 Mbytes
Step Temp E_pair E_mol TotEng Press 
       0   0.97029772   0.44484087    20.494523    22.394765    4.6721833 
     100   0.97531122   0.44704584    20.500542    22.410509    4.6298056 
Loop time of 0.11129 on 24 procs for 100 steps with 32000 atoms

Performance: 931622.914 tau/day, 898.556 timesteps/s
95.6% CPU use with 24 MPI tasks x 1 OpenMP threads

MPI task timing breakdown:
Section |  min time  |  avg time  |  max time  |%varavg| %total
---------------------------------------------------------------
Pair    | 0.041935   | 0.046751   | 0.055691   |   1.6 | 42.01
Bond    | 0.0053345  | 0.0055609  | 0.005914   |   0.2 |  5.00
Neigh   | 0.0015497  | 0.0016479  | 0.0017395  |   0.1 |  1.48
Comm    | 0.01925    | 0.022123   | 0.024812   |   0.9 | 19.88
Output  | 4.9203e-05 | 0.0003262  | 0.00058157 |   0.0 |  0.29
Modify  | 0.015371   | 0.015872   | 0.016896   |   0.3 | 14.26
Other   |            | 0.01901    |            |       | 17.08

Nlocal:        1333.33 ave        1353 max        1306 min
Histogram: 1 1 1 2 2 6 5 1 2 3
Nghost:        1397.29 ave        1423 max        1377 min
Histogram: 3 3 1 5 2 3 3 1 1 2
Neighs:              0 ave           0 max           0 min
Histogram: 24 0 0 0 0 0 0 0 0 0

Total # of neighbors = 0
Ave neighs/atom = 0
Ave special neighs/atom = 1.98
Neighbor list builds = 25
Dangerous builds = 0


---------------------------------------------------------------------
      Device Time Info (average): 
---------------------------------------------------------------------
Data Transfer:   0.0047 s.
Neighbor copy:   0.0189 s.
Neighbor build:  0.0084 s.
Force calc:      0.0135 s.
Device Overhead: 0.0349 s.
Average split:   1.0000.
Lanes / atom:    4.
Vector width:    32.
Max Mem / Proc:  0.41 MB.
CPU Neighbor:    0.0038 s.
CPU Cast/Pack:   0.0019 s.
CPU Driver_Time: 0.0024 s.
CPU Idle_Time:   0.0142 s.
---------------------------------------------------------------------

Total wall time: 0:00:21
