LAMMPS (7 Jan 2022)
  using 1 OpenMP thread(s) per MPI task
Lattice spacing in x,y,z = 1.6795962 1.6795962 1.6795962
Created orthogonal box = (0 0 0) to (33.591924 33.591924 33.591924)
  1 by 2 by 3 MPI processor grid
Created 32000 atoms
  using lattice units in orthogonal box = (0 0 0) to (33.591924 33.591924 33.591924)
  create_atoms CPU = 0.002 seconds

CITE-CITE-CITE-CITE-CITE-CITE-CITE-CITE-CITE-CITE-CITE-CITE-CITE

Your simulation uses code contributions which should be cited:
- GPU package (short-range, long-range and three-body potentials):
The log file lists these citations in BibTeX format.

CITE-CITE-CITE-CITE-CITE-CITE-CITE-CITE-CITE-CITE-CITE-CITE-CITE


--------------------------------------------------------------------------
- Using acceleration for lj/cut:
-  with 6 proc(s) per device.
-  Horizontal vector operations: ENABLED
-  Shared memory system: No
--------------------------------------------------------------------------
Device 0: Tesla V100-SXM2-16GB, 80 CUs, 14/16 GB, 1.5 GHZ (Single Precision)
--------------------------------------------------------------------------

Initializing Device and compiling on process 0...Done.
Initializing Device 0 on core 0...Done.
Initializing Device 0 on core 1...Done.
Initializing Device 0 on core 2...Done.
Initializing Device 0 on core 3...Done.
Initializing Device 0 on core 4...Done.
Initializing Device 0 on core 5...Done.

  generated 0 of 0 mixed pair_coeff terms from geometric mixing rule
Setting up Verlet run ...
  Unit style    : lj
  Current step  : 0
  Time step     : 0.005
Per MPI rank memory allocation (min/avg/max) = 2.547 | 2.581 | 2.617 Mbytes
Step Temp E_pair E_mol TotEng Press 
       0         1.44   -6.7733684            0   -4.6134359   -5.0197072 
     100   0.75745329   -5.7585058            0   -4.6223614   0.20726117 
Loop time of 0.11139 on 6 procs for 100 steps with 32000 atoms

Performance: 387827.522 tau/day, 897.749 timesteps/s
92.2% CPU use with 6 MPI tasks x 1 OpenMP threads

MPI task timing breakdown:
Section |  min time  |  avg time  |  max time  |%varavg| %total
---------------------------------------------------------------
Pair    | 0.042731   | 0.053204   | 0.060839   |   2.9 | 47.76
Neigh   | 1.239e-06  | 1.7393e-06 | 2.243e-06  |   0.0 |  0.00
Comm    | 0.045336   | 0.053069   | 0.063658   |   2.9 | 47.64
Output  | 4.99e-05   | 0.00052689 | 0.0010077  |   0.0 |  0.47
Modify  | 0.0023249  | 0.0026359  | 0.002952   |   0.4 |  2.37
Other   |            | 0.001953   |            |       |  1.75

Nlocal:        5333.33 ave        5413 max        5229 min
Histogram: 2 0 0 0 0 0 0 2 1 1
Nghost:        7305.83 ave        7399 max        7227 min
Histogram: 1 0 2 1 0 0 0 0 0 2
Neighs:              0 ave           0 max           0 min
Histogram: 6 0 0 0 0 0 0 0 0 0

Total # of neighbors = 0
Ave neighs/atom = 0
Neighbor list builds = 5
Dangerous builds not checked


---------------------------------------------------------------------
      Device Time Info (average): 
---------------------------------------------------------------------
Data Transfer:   0.0106 s.
Neighbor copy:   0.0002 s.
Neighbor build:  0.0031 s.
Force calc:      0.0334 s.
Device Overhead: 0.0673 s.
Average split:   1.0000.
Lanes / atom:    4.
Vector width:    32.
Max Mem / Proc:  4.57 MB.
CPU Neighbor:    0.0053 s.
CPU Cast/Pack:   0.0090 s.
CPU Driver_Time: 0.0027 s.
CPU Idle_Time:   0.0370 s.
---------------------------------------------------------------------

Total wall time: 0:00:05
