LAMMPS (7 Jan 2022)
  using 1 OpenMP thread(s) per MPI task
Reading data file ...
  orthogonal box = (-27.5 -38.5 -36.3646) to (27.5 38.5 36.3615)
  2 by 4 by 4 MPI processor grid
  reading atoms ...
  32000 atoms
  reading velocities ...
  32000 velocities
  scanning bonds ...
  4 = max bonds/atom
  scanning angles ...
  8 = max angles/atom
  scanning dihedrals ...
  18 = max dihedrals/atom
  scanning impropers ...
  2 = max impropers/atom
  reading bonds ...
  27723 bonds
  reading angles ...
  40467 angles
  reading dihedrals ...
  56829 dihedrals
  reading impropers ...
  1034 impropers
Finding 1-2 1-3 1-4 neighbors ...
  special bond factors lj:    0        0        0       
  special bond factors coul:  0        0        0       
     4 = max # of 1-2 neighbors
    12 = max # of 1-3 neighbors
    24 = max # of 1-4 neighbors
    26 = max # of special neighbors
  special bonds CPU = 0.006 seconds
  read_data CPU = 0.349 seconds
Replicating atoms ...
  orthogonal box = (-27.5 -38.5 -36.3646) to (82.5 115.5 109.0876)
  2 by 4 by 4 MPI processor grid
  256000 atoms
  221784 bonds
  323736 angles
  454632 dihedrals
  8272 impropers
Finding 1-2 1-3 1-4 neighbors ...
  special bond factors lj:    0        0        0       
  special bond factors coul:  0        0        0       
     4 = max # of 1-2 neighbors
    12 = max # of 1-3 neighbors
    24 = max # of 1-4 neighbors
    26 = max # of special neighbors
  special bonds CPU = 0.018 seconds
  replicate CPU = 0.056 seconds
Finding SHAKE clusters ...
   12936 = # of size 2 clusters
   29064 = # of size 3 clusters
    5976 = # of size 4 clusters
   33864 = # of frozen angles
  find clusters CPU = 0.008 seconds

CITE-CITE-CITE-CITE-CITE-CITE-CITE-CITE-CITE-CITE-CITE-CITE-CITE

Your simulation uses code contributions which should be cited:
- GPU package (short-range, long-range and three-body potentials):
The log file lists these citations in BibTeX format.

CITE-CITE-CITE-CITE-CITE-CITE-CITE-CITE-CITE-CITE-CITE-CITE-CITE

PPPM initialization ...
  using 12-bit tables for long-range coulomb (../kspace.cpp:340)
  G vector (1/distance) = 0.24587501
  grid = 48 64 60
  stencil order = 5
  estimated absolute RMS force accuracy = 0.041154918
  estimated relative force accuracy = 0.00012393681
  using single precision MKL FFT
  3d grid and FFT values/proc = 12180 6144

--------------------------------------------------------------------------
- Using acceleration for pppm:
-  with 8 proc(s) per device.
-  Horizontal vector operations: ENABLED
-  Shared memory system: No
--------------------------------------------------------------------------
Device 0: Tesla V100-SXM2-16GB, 80 CUs, 13/16 GB, 1.5 GHZ (Single Precision)
Device 1: Tesla V100-SXM2-16GB, 80 CUs, 1.5 GHZ (Single Precision)
Device 2: Tesla V100-SXM2-16GB, 80 CUs, 1.5 GHZ (Single Precision)
Device 3: Tesla V100-SXM2-16GB, 80 CUs, 1.5 GHZ (Single Precision)
--------------------------------------------------------------------------

Initializing Device and compiling on process 0...Done.
Initializing Devices 0-3 on core 0...Done.
Initializing Devices 0-3 on core 1...Done.
Initializing Devices 0-3 on core 2...Done.
Initializing Devices 0-3 on core 3...Done.
Initializing Devices 0-3 on core 4...Done.
Initializing Devices 0-3 on core 5...Done.
Initializing Devices 0-3 on core 6...Done.
Initializing Devices 0-3 on core 7...Done.


--------------------------------------------------------------------------
- Using acceleration for lj/charmm/coul/long:
-  with 8 proc(s) per device.
-  Horizontal vector operations: ENABLED
-  Shared memory system: No
--------------------------------------------------------------------------
Device 0: Tesla V100-SXM2-16GB, 80 CUs, 13/16 GB, 1.5 GHZ (Single Precision)
Device 1: Tesla V100-SXM2-16GB, 80 CUs, 1.5 GHZ (Single Precision)
Device 2: Tesla V100-SXM2-16GB, 80 CUs, 1.5 GHZ (Single Precision)
Device 3: Tesla V100-SXM2-16GB, 80 CUs, 1.5 GHZ (Single Precision)
--------------------------------------------------------------------------

Initializing Device and compiling on process 0...Done.
Initializing Devices 0-3 on core 0...Done.
Initializing Devices 0-3 on core 1...Done.
Initializing Devices 0-3 on core 2...Done.
Initializing Devices 0-3 on core 3...Done.
Initializing Devices 0-3 on core 4...Done.
Initializing Devices 0-3 on core 5...Done.
Initializing Devices 0-3 on core 6...Done.
Initializing Devices 0-3 on core 7...Done.

  generated 2278 of 2278 mixed pair_coeff terms from arithmetic mixing rule
Setting up Verlet run ...
  Unit style    : real
  Current step  : 0
  Time step     : 2
Per MPI rank memory allocation (min/avg/max) = 37.65 | 37.69 | 37.7 Mbytes
---------------- Step        0 ----- CPU =      0.0000 (sec) ----------------
TotEng   =   -202846.6820 KinEng   =    171558.6503 Temp     =       299.0288 
PotEng   =   -374405.3323 E_bond   =     20303.9521 E_angle  =     87370.9937 
E_dihed  =     41694.2920 E_impro  =      1708.0927 E_vdwl   =    -18462.9045 
E_coul   =   1630560.2212 E_long   =  -2137579.9794 Press    =      -148.7799 
Volume   =   2463960.2680 
---------------- Step       50 ----- CPU =      0.6780 (sec) ----------------
TotEng   =   -202633.3633 KinEng   =    172010.7476 Temp     =       299.8168 
PotEng   =   -374644.1110 E_bond   =     19774.3529 E_angle  =     86693.5106 
E_dihed  =     41917.8105 E_impro  =      1817.0671 E_vdwl   =    -15943.3817 
E_coul   =   1628731.2333 E_long   =  -2137634.7036 Press    =       238.5811 
Volume   =   2464254.6357 
---------------- Step      100 ----- CPU =      1.3508 (sec) ----------------
TotEng   =   -202315.0259 KinEng   =    172724.4046 Temp     =       301.0607 
PotEng   =   -375039.4305 E_bond   =     20545.2203 E_angle  =     86257.3353 
E_dihed  =     41587.6734 E_impro  =      1733.5577 E_vdwl   =    -15187.8655 
E_coul   =   1627614.4101 E_long   =  -2137589.7616 Press    =        10.9145 
Volume   =   2465078.7653 
Loop time of 1.35091 on 32 procs for 100 steps with 256000 atoms

Performance: 12.791 ns/day, 1.876 hours/ns, 74.024 timesteps/s
96.6% CPU use with 32 MPI tasks x 1 OpenMP threads

MPI task timing breakdown:
Section |  min time  |  avg time  |  max time  |%varavg| %total
---------------------------------------------------------------
Pair    | 0.13416    | 0.15037    | 0.16418    |   2.0 | 11.13
Bond    | 0.28548    | 0.30709    | 0.3355     |   2.7 | 22.73
Kspace  | 0.27101    | 0.3044     | 0.33065    |   2.9 | 22.53
Neigh   | 0.056848   | 0.05873    | 0.060136   |   0.3 |  4.35
Comm    | 0.11513    | 0.11945    | 0.14023    |   2.0 |  8.84
Output  | 0.00024543 | 0.00024912 | 0.00030123 |   0.0 |  0.02
Modify  | 0.33762    | 0.3855     | 0.40091    |   2.8 | 28.54
Other   |            | 0.02512    |            |       |  1.86

Nlocal:           8000 ave        8143 max        7933 min
Histogram: 8 16 0 0 0 0 0 0 0 8
Nghost:        22735.5 ave       22770 max       22697 min
Histogram: 8 0 0 0 0 16 0 0 0 8
Neighs:              0 ave           0 max           0 min
Histogram: 32 0 0 0 0 0 0 0 0 0

Total # of neighbors = 0
Ave neighs/atom = 0
Ave special neighs/atom = 7.431875
Neighbor list builds = 11
Dangerous builds = 0


---------------------------------------------------------------------
      Device Time Info (average): 
---------------------------------------------------------------------
Data Transfer:   0.0047 s.
Neighbor copy:   0.0365 s.
Neighbor build:  0.0561 s.
Force calc:      0.1902 s.
Device Overhead: 0.0841 s.
Average split:   1.0000.
Lanes / atom:    8.
Vector width:    32.
Max Mem / Proc:  38.10 MB.
CPU Neighbor:    0.0298 s.
CPU Cast/Pack:   0.0314 s.
CPU Driver_Time: 0.0018 s.
CPU Idle_Time:   0.0007 s.
---------------------------------------------------------------------



---------------------------------------------------------------------
    Device Time Info (average) for kspace: 
---------------------------------------------------------------------
Data Out:        0.0031 s.
Data In:         0.0251 s.
Kernel (map):    0.1358 s.
Kernel (rho):    0.0143 s.
Force interp:    0.0554 s.
Total rho:       0.1532 s.
Total interp:    0.0804 s.
Force copy:      0.0032 s.
Total:           0.2368 s.
CPU Poisson:     0.2245 s.
CPU Data Cast:   0.0027 s.
CPU Idle Time:   0.0773 s.
Max Mem / Proc:  1.71 MB.
---------------------------------------------------------------------

Total wall time: 0:00:30
