LAMMPS (7 Jan 2022)
  using 1 OpenMP thread(s) per MPI task
Reading data file ...
  orthogonal box = (-27.5 -38.5 -36.3646) to (27.5 38.5 36.3615)
  2 by 3 by 2 MPI processor grid
  reading atoms ...
  32000 atoms
  reading velocities ...
  32000 velocities
  scanning bonds ...
  4 = max bonds/atom
  scanning angles ...
  8 = max angles/atom
  scanning dihedrals ...
  18 = max dihedrals/atom
  scanning impropers ...
  2 = max impropers/atom
  reading bonds ...
  27723 bonds
  reading angles ...
  40467 angles
  reading dihedrals ...
  56829 dihedrals
  reading impropers ...
  1034 impropers
Finding 1-2 1-3 1-4 neighbors ...
  special bond factors lj:    0        0        0       
  special bond factors coul:  0        0        0       
     4 = max # of 1-2 neighbors
    12 = max # of 1-3 neighbors
    24 = max # of 1-4 neighbors
    26 = max # of special neighbors
  special bonds CPU = 0.004 seconds
  read_data CPU = 0.369 seconds
Finding SHAKE clusters ...
    1617 = # of size 2 clusters
    3633 = # of size 3 clusters
     747 = # of size 4 clusters
    4233 = # of frozen angles
  find clusters CPU = 0.003 seconds

CITE-CITE-CITE-CITE-CITE-CITE-CITE-CITE-CITE-CITE-CITE-CITE-CITE

Your simulation uses code contributions which should be cited:
- GPU package (short-range, long-range and three-body potentials):
The log file lists these citations in BibTeX format.

CITE-CITE-CITE-CITE-CITE-CITE-CITE-CITE-CITE-CITE-CITE-CITE-CITE

PPPM initialization ...
  using 12-bit tables for long-range coulomb (../kspace.cpp:340)
  G vector (1/distance) = 0.24883488
  grid = 25 32 32
  stencil order = 5
  estimated absolute RMS force accuracy = 0.035547797
  estimated relative force accuracy = 0.00010705113
  using single precision MKL FFT
  3d grid and FFT values/proc = 6426 2400

--------------------------------------------------------------------------
- Using acceleration for pppm:
-  with 3 proc(s) per device.
-  Horizontal vector operations: ENABLED
-  Shared memory system: No
--------------------------------------------------------------------------
Device 0: Tesla V100-SXM2-16GB, 80 CUs, 15/16 GB, 1.5 GHZ (Double Precision)
Device 1: Tesla V100-SXM2-16GB, 80 CUs, 1.5 GHZ (Double Precision)
Device 2: Tesla V100-SXM2-16GB, 80 CUs, 1.5 GHZ (Double Precision)
Device 3: Tesla V100-SXM2-16GB, 80 CUs, 1.5 GHZ (Double Precision)
--------------------------------------------------------------------------

Initializing Device and compiling on process 0...Done.
Initializing Devices 0-3 on core 0...Done.
Initializing Devices 0-3 on core 1...Done.
Initializing Devices 0-3 on core 2...Done.


--------------------------------------------------------------------------
- Using acceleration for lj/charmm/coul/long:
-  with 3 proc(s) per device.
-  Horizontal vector operations: ENABLED
-  Shared memory system: No
--------------------------------------------------------------------------
Device 0: Tesla V100-SXM2-16GB, 80 CUs, 15/16 GB, 1.5 GHZ (Double Precision)
Device 1: Tesla V100-SXM2-16GB, 80 CUs, 1.5 GHZ (Double Precision)
Device 2: Tesla V100-SXM2-16GB, 80 CUs, 1.5 GHZ (Double Precision)
Device 3: Tesla V100-SXM2-16GB, 80 CUs, 1.5 GHZ (Double Precision)
--------------------------------------------------------------------------

Initializing Device and compiling on process 0...Done.
Initializing Devices 0-3 on core 0...Done.
Initializing Devices 0-3 on core 1...Done.
Initializing Devices 0-3 on core 2...Done.

  generated 2278 of 2278 mixed pair_coeff terms from arithmetic mixing rule
Setting up Verlet run ...
  Unit style    : real
  Current step  : 0
  Time step     : 2
Per MPI rank memory allocation (min/avg/max) = 19.13 | 19.22 | 19.36 Mbytes
---------------- Step        0 ----- CPU =      0.0000 (sec) ----------------
TotEng   =    -25356.2131 KinEng   =     21444.8313 Temp     =       299.0397 
PotEng   =    -46801.0444 E_bond   =      2537.9940 E_angle  =     10921.3742 
E_dihed  =      5211.7865 E_impro  =       213.5116 E_vdwl   =     -2307.8634 
E_coul   =    207025.8948 E_long   =   -270403.7421 Press    =      -149.3265 
Volume   =    307995.0335 
---------------- Step       50 ----- CPU =      0.2371 (sec) ----------------
TotEng   =    -25330.0361 KinEng   =     21500.9984 Temp     =       299.8229 
PotEng   =    -46831.0345 E_bond   =      2471.7036 E_angle  =     10836.5106 
E_dihed  =      5239.6321 E_impro  =       227.1218 E_vdwl   =     -1993.2895 
E_coul   =    206797.6881 E_long   =   -270410.4012 Press    =       237.6594 
Volume   =    308031.6774 
---------------- Step      100 ----- CPU =      0.4597 (sec) ----------------
TotEng   =    -25290.7434 KinEng   =     21591.9060 Temp     =       301.0906 
PotEng   =    -46882.6494 E_bond   =      2567.9808 E_angle  =     10781.9584 
E_dihed  =      5198.7494 E_impro  =       216.7864 E_vdwl   =     -1902.6655 
E_coul   =    206659.5232 E_long   =   -270404.9821 Press    =         6.7345 
Volume   =    308134.2315 
---------------- Step      150 ----- CPU =      0.6755 (sec) ----------------
TotEng   =    -25258.0340 KinEng   =     21529.6477 Temp     =       300.2224 
PotEng   =    -46787.6817 E_bond   =      2556.3467 E_angle  =     10852.7819 
E_dihed  =      5265.2315 E_impro  =       203.0691 E_vdwl   =     -2066.1420 
E_coul   =    206797.5138 E_long   =   -270396.4827 Press    =       251.5189 
Volume   =    308515.2451 
---------------- Step      200 ----- CPU =      0.8961 (sec) ----------------
TotEng   =    -25078.8560 KinEng   =     21571.4133 Temp     =       300.8048 
PotEng   =    -46650.2693 E_bond   =      2488.6951 E_angle  =     11073.4397 
E_dihed  =      5221.7540 E_impro  =       232.8555 E_vdwl   =     -2167.6987 
E_coul   =    206902.8103 E_long   =   -270402.1252 Press    =        20.6697 
Volume   =    308997.5615 
---------------- Step      250 ----- CPU =      1.1294 (sec) ----------------
TotEng   =    -24944.3352 KinEng   =     21546.9710 Temp     =       300.4640 
PotEng   =    -46491.3062 E_bond   =      2542.5494 E_angle  =     11105.4911 
E_dihed  =      5239.6555 E_impro  =       212.3475 E_vdwl   =     -2169.1279 
E_coul   =    206989.9778 E_long   =   -270412.1997 Press    =      -170.0117 
Volume   =    309388.0671 
---------------- Step      300 ----- CPU =      1.3561 (sec) ----------------
TotEng   =    -24999.8226 KinEng   =     21502.0594 Temp     =       299.8377 
PotEng   =    -46501.8819 E_bond   =      2557.9363 E_angle  =     10921.7591 
E_dihed  =      5211.0679 E_impro  =       222.1801 E_vdwl   =     -2220.7022 
E_coul   =    207192.7400 E_long   =   -270386.8632 Press    =      -371.4520 
Volume   =    309663.6528 
---------------- Step      350 ----- CPU =      1.5764 (sec) ----------------
TotEng   =    -25128.4469 KinEng   =     21462.4487 Temp     =       299.2853 
PotEng   =    -46590.8956 E_bond   =      2580.5235 E_angle  =     10951.9106 
E_dihed  =      5250.5616 E_impro  =       212.6942 E_vdwl   =     -2167.8207 
E_coul   =    206983.2698 E_long   =   -270402.0347 Press    =      -335.3252 
Volume   =    309801.3378 
---------------- Step      400 ----- CPU =      1.7923 (sec) ----------------
TotEng   =    -25202.2996 KinEng   =     21400.8604 Temp     =       298.4265 
PotEng   =    -46603.1600 E_bond   =      2526.6756 E_angle  =     10968.1099 
E_dihed  =      5206.4114 E_impro  =       212.4514 E_vdwl   =     -2142.4911 
E_coul   =    207037.5069 E_long   =   -270411.8242 Press    =       235.1078 
Volume   =    309816.3031 
---------------- Step      450 ----- CPU =      2.0135 (sec) ----------------
TotEng   =    -25136.1065 KinEng   =     21489.6882 Temp     =       299.6652 
PotEng   =    -46625.7948 E_bond   =      2502.0218 E_angle  =     10966.8235 
E_dihed  =      5244.7742 E_impro  =       225.9235 E_vdwl   =     -2255.4881 
E_coul   =    207086.0420 E_long   =   -270395.8916 Press    =       166.1932 
Volume   =    309784.6308 
---------------- Step      500 ----- CPU =      2.2349 (sec) ----------------
TotEng   =    -24941.7019 KinEng   =     21658.5258 Temp     =       302.0196 
PotEng   =    -46600.2277 E_bond   =      2573.6660 E_angle  =     10958.6684 
E_dihed  =      5267.8218 E_impro  =       215.6268 E_vdwl   =     -2186.7795 
E_coul   =    206971.3574 E_long   =   -270400.5886 Press    =      -283.8818 
Volume   =    309770.9246 
---------------- Step      550 ----- CPU =      2.4506 (sec) ----------------
TotEng   =    -24923.8354 KinEng   =     21617.9271 Temp     =       301.4534 
PotEng   =    -46541.7625 E_bond   =      2508.6977 E_angle  =     10901.5033 
E_dihed  =      5206.9212 E_impro  =       224.5749 E_vdwl   =     -1957.9034 
E_coul   =    206962.3549 E_long   =   -270387.9111 Press    =       463.3221 
Volume   =    309709.9532 
---------------- Step      600 ----- CPU =      2.6720 (sec) ----------------
TotEng   =    -25024.9970 KinEng   =     21693.9166 Temp     =       302.5131 
PotEng   =    -46718.9136 E_bond   =      2564.7199 E_angle  =     10841.0909 
E_dihed  =      5232.8566 E_impro  =       210.7842 E_vdwl   =     -2110.3215 
E_coul   =    206931.2699 E_long   =   -270389.3136 Press    =        77.7710 
Volume   =    309828.8665 
Loop time of 2.67209 on 12 procs for 600 steps with 32000 atoms

Performance: 38.801 ns/day, 0.619 hours/ns, 224.543 timesteps/s
96.8% CPU use with 12 MPI tasks x 1 OpenMP threads

MPI task timing breakdown:
Section |  min time  |  avg time  |  max time  |%varavg| %total
---------------------------------------------------------------
Pair    | 0.35747    | 0.4223     | 0.47369    |   5.4 | 15.80
Bond    | 0.55369    | 0.60888    | 0.69551    |   5.6 | 22.79
Kspace  | 0.56361    | 0.64066    | 0.70837    |   5.5 | 23.98
Neigh   | 0.046241   | 0.047385   | 0.047746   |   0.2 |  1.77
Comm    | 0.22049    | 0.23525    | 0.26293    |   3.6 |  8.80
Output  | 0.00082999 | 0.00085747 | 0.0011227  |   0.0 |  0.03
Modify  | 0.60675    | 0.67576    | 0.73497    |   4.7 | 25.29
Other   |            | 0.041      |            |       |  1.53

Nlocal:        2666.67 ave        2734 max        2618 min
Histogram: 2 2 1 2 1 1 0 0 2 1
Nghost:        13241.6 ave       13343 max       13131 min
Histogram: 1 2 0 2 0 0 3 2 1 1
Neighs:              0 ave           0 max           0 min
Histogram: 12 0 0 0 0 0 0 0 0 0

Total # of neighbors = 0
Ave neighs/atom = 0
Ave special neighs/atom = 7.431875
Neighbor list builds = 67
Dangerous builds = 0


---------------------------------------------------------------------
      Device Time Info (average): 
---------------------------------------------------------------------
Data Transfer:   0.0199 s.
Neighbor copy:   0.0425 s.
Neighbor build:  0.1331 s.
Force calc:      0.4488 s.
Device Overhead: 0.1842 s.
Average split:   1.0000.
Lanes / atom:    8.
Vector width:    32.
Max Mem / Proc:  13.60 MB.
CPU Neighbor:    0.0303 s.
CPU Cast/Pack:   0.1072 s.
CPU Driver_Time: 0.0104 s.
CPU Idle_Time:   0.0090 s.
---------------------------------------------------------------------



---------------------------------------------------------------------
    Device Time Info (average) for kspace: 
---------------------------------------------------------------------
Data Out:        0.0118 s.
Data In:         0.0310 s.
Kernel (map):    0.2384 s.
Kernel (rho):    0.0716 s.
Force interp:    0.1539 s.
Total rho:       0.3218 s.
Total interp:    0.1848 s.
Force copy:      0.0111 s.
Total:           0.5177 s.
CPU Poisson:     0.4565 s.
CPU Data Cast:   0.0077 s.
CPU Idle Time:   0.1642 s.
Max Mem / Proc:  0.88 MB.
---------------------------------------------------------------------

Total wall time: 0:00:13
