LAMMPS (7 Jan 2022)
  using 1 OpenMP thread(s) per MPI task
Lattice spacing in x,y,z = 1.6795962 1.6795962 1.6795962
Created orthogonal box = (0 0 0) to (33.591924 33.591924 33.591924)
  2 by 2 by 3 MPI processor grid
Created 32000 atoms
  using lattice units in orthogonal box = (0 0 0) to (33.591924 33.591924 33.591924)
  create_atoms CPU = 0.002 seconds

CITE-CITE-CITE-CITE-CITE-CITE-CITE-CITE-CITE-CITE-CITE-CITE-CITE

Your simulation uses code contributions which should be cited:
- GPU package (short-range, long-range and three-body potentials):
The log file lists these citations in BibTeX format.

CITE-CITE-CITE-CITE-CITE-CITE-CITE-CITE-CITE-CITE-CITE-CITE-CITE


--------------------------------------------------------------------------
- Using acceleration for lj/cut:
-  with 6 proc(s) per device.
-  Horizontal vector operations: ENABLED
-  Shared memory system: No
--------------------------------------------------------------------------
Device 0: Tesla V100-SXM2-16GB, 80 CUs, 14/16 GB, 1.5 GHZ (Single Precision)
Device 1: Tesla V100-SXM2-16GB, 80 CUs, 1.5 GHZ (Single Precision)
--------------------------------------------------------------------------

Initializing Device and compiling on process 0...Done.
Initializing Devices 0-1 on core 0...Done.
Initializing Devices 0-1 on core 1...Done.
Initializing Devices 0-1 on core 2...Done.
Initializing Devices 0-1 on core 3...Done.
Initializing Devices 0-1 on core 4...Done.
Initializing Devices 0-1 on core 5...Done.

  generated 0 of 0 mixed pair_coeff terms from geometric mixing rule
Setting up Verlet run ...
  Unit style    : lj
  Current step  : 0
  Time step     : 0.005
Per MPI rank memory allocation (min/avg/max) = 2.286 | 2.293 | 2.306 Mbytes
Step Temp E_pair E_mol TotEng Press 
       0         1.44   -6.7733684            0   -4.6134359   -5.0197072 
     100   0.75745331   -5.7585059            0   -4.6223614   0.20726092 
Loop time of 0.103453 on 12 procs for 100 steps with 32000 atoms

Performance: 417581.739 tau/day, 966.624 timesteps/s
91.6% CPU use with 12 MPI tasks x 1 OpenMP threads

MPI task timing breakdown:
Section |  min time  |  avg time  |  max time  |%varavg| %total
---------------------------------------------------------------
Pair    | 0.041975   | 0.048219   | 0.061771   |   2.4 | 46.61
Neigh   | 1.281e-06  | 1.5998e-06 | 1.873e-06  |   0.0 |  0.00
Comm    | 0.038707   | 0.052036   | 0.059343   |   2.3 | 50.30
Output  | 5.2201e-05 | 0.0006005  | 0.0010235  |   0.0 |  0.58
Modify  | 0.001107   | 0.0014687  | 0.0016347  |   0.3 |  1.42
Other   |            | 0.001128   |            |       |  1.09

Nlocal:        2666.67 ave        2723 max        2604 min
Histogram: 2 1 1 0 0 2 2 2 1 1
Nghost:        4584.75 ave        4662 max        4526 min
Histogram: 1 0 4 2 2 1 0 0 0 2
Neighs:              0 ave           0 max           0 min
Histogram: 12 0 0 0 0 0 0 0 0 0

Total # of neighbors = 0
Ave neighs/atom = 0
Neighbor list builds = 5
Dangerous builds not checked


---------------------------------------------------------------------
      Device Time Info (average): 
---------------------------------------------------------------------
Data Transfer:   0.0094 s.
Neighbor copy:   0.0002 s.
Neighbor build:  0.0028 s.
Force calc:      0.0319 s.
Device Overhead: 0.0669 s.
Average split:   1.0000.
Lanes / atom:    4.
Vector width:    32.
Max Mem / Proc:  2.31 MB.
CPU Neighbor:    0.0097 s.
CPU Cast/Pack:   0.0050 s.
CPU Driver_Time: 0.0026 s.
CPU Idle_Time:   0.0347 s.
---------------------------------------------------------------------

Total wall time: 0:00:11
