LAMMPS (7 Jan 2022)
  using 1 OpenMP thread(s) per MPI task
Lattice spacing in x,y,z = 1.6795962 1.6795962 1.6795962
Created orthogonal box = (0 0 0) to (33.591924 33.591924 33.591924)
  2 by 3 by 4 MPI processor grid
Created 32000 atoms
  using lattice units in orthogonal box = (0 0 0) to (33.591924 33.591924 33.591924)
  create_atoms CPU = 0.002 seconds

CITE-CITE-CITE-CITE-CITE-CITE-CITE-CITE-CITE-CITE-CITE-CITE-CITE

Your simulation uses code contributions which should be cited:
- GPU package (short-range, long-range and three-body potentials):
The log file lists these citations in BibTeX format.

CITE-CITE-CITE-CITE-CITE-CITE-CITE-CITE-CITE-CITE-CITE-CITE-CITE


--------------------------------------------------------------------------
- Using acceleration for lj/cut:
-  with 3 proc(s) per device.
-  Horizontal vector operations: ENABLED
-  Shared memory system: No
--------------------------------------------------------------------------
Device 0: Tesla V100-SXM2-16GB, 80 CUs, 15/16 GB, 1.5 GHZ (Single Precision)
Device 1: Tesla V100-SXM2-16GB, 80 CUs, 1.5 GHZ (Single Precision)
Device 2: Tesla V100-SXM2-16GB, 80 CUs, 1.5 GHZ (Single Precision)
Device 3: Tesla V100-SXM2-16GB, 80 CUs, 1.5 GHZ (Single Precision)
Device 4: Tesla V100-SXM2-16GB, 80 CUs, 1.5 GHZ (Single Precision)
Device 5: Tesla V100-SXM2-16GB, 80 CUs, 1.5 GHZ (Single Precision)
Device 6: Tesla V100-SXM2-16GB, 80 CUs, 1.5 GHZ (Single Precision)
Device 7: Tesla V100-SXM2-16GB, 80 CUs, 1.5 GHZ (Single Precision)
--------------------------------------------------------------------------

Initializing Device and compiling on process 0...Done.
Initializing Devices 0-7 on core 0...Done.
Initializing Devices 0-7 on core 1...Done.
Initializing Devices 0-7 on core 2...Done.

  generated 0 of 0 mixed pair_coeff terms from geometric mixing rule
Setting up Verlet run ...
  Unit style    : lj
  Current step  : 0
  Time step     : 0.005
Per MPI rank memory allocation (min/avg/max) = 2.149 | 2.17 | 2.189 Mbytes
Step Temp E_pair E_mol TotEng Press 
       0         1.44   -6.7733684            0   -4.6134359   -5.0197072 
     100   0.75745327    -5.758506            0   -4.6223616   0.20726067 
Loop time of 0.0597317 on 24 procs for 100 steps with 32000 atoms

Performance: 723233.757 tau/day, 1674.152 timesteps/s
89.3% CPU use with 24 MPI tasks x 1 OpenMP threads

MPI task timing breakdown:
Section |  min time  |  avg time  |  max time  |%varavg| %total
---------------------------------------------------------------
Pair    | 0.012454   | 0.025121   | 0.035465   |   3.4 | 42.06
Neigh   | 1.246e-06  | 1.9381e-06 | 2.424e-06  |   0.0 |  0.00
Comm    | 0.022424   | 0.032581   | 0.04554    |   3.0 | 54.54
Output  | 5.3112e-05 | 0.00030904 | 0.00054632 |   0.0 |  0.52
Modify  | 0.00066771 | 0.00092672 | 0.0010236  |   0.0 |  1.55
Other   |            | 0.0007924  |            |       |  1.33

Nlocal:        1333.33 ave        1365 max        1278 min
Histogram: 1 1 2 1 2 1 6 1 4 5
Nghost:           3223 ave        3289 max        3184 min
Histogram: 3 6 4 1 2 4 1 1 0 2
Neighs:              0 ave           0 max           0 min
Histogram: 24 0 0 0 0 0 0 0 0 0

Total # of neighbors = 0
Ave neighs/atom = 0
Neighbor list builds = 5
Dangerous builds not checked


---------------------------------------------------------------------
      Device Time Info (average): 
---------------------------------------------------------------------
Data Transfer:   0.0058 s.
Neighbor copy:   0.0002 s.
Neighbor build:  0.0016 s.
Force calc:      0.0179 s.
Device Overhead: 0.0358 s.
Average split:   1.0000.
Lanes / atom:    4.
Vector width:    32.
Max Mem / Proc:  1.92 MB.
CPU Neighbor:    0.0010 s.
CPU Cast/Pack:   0.0031 s.
CPU Driver_Time: 0.0033 s.
CPU Idle_Time:   0.0153 s.
---------------------------------------------------------------------

Total wall time: 0:00:22
