LAMMPS (7 Jan 2022)
  using 1 OpenMP thread(s) per MPI task
Reading data file ...
  orthogonal box = (-16.796 -16.796 -16.796) to (16.796 16.796 16.796)
  3 by 4 by 4 MPI processor grid
  reading atoms ...
  32000 atoms
  reading velocities ...
  32000 velocities
  scanning bonds ...
  1 = max bonds/atom
  reading bonds ...
  31680 bonds
Finding 1-2 1-3 1-4 neighbors ...
  special bond factors lj:    0        1        1       
  special bond factors coul:  0        1        1       
     2 = max # of 1-2 neighbors
     2 = max # of special neighbors
  special bonds CPU = 0.007 seconds
  read_data CPU = 0.197 seconds
Replicating atoms ...
  orthogonal box = (-16.796 -16.796 -16.796) to (83.98 83.98 83.98)
  3 by 4 by 4 MPI processor grid
  864000 atoms
  855360 bonds
Finding 1-2 1-3 1-4 neighbors ...
  special bond factors lj:    0        1        1       
  special bond factors coul:  0        1        1       
     2 = max # of 1-2 neighbors
     2 = max # of special neighbors
  special bonds CPU = 0.012 seconds
  replicate CPU = 0.040 seconds

CITE-CITE-CITE-CITE-CITE-CITE-CITE-CITE-CITE-CITE-CITE-CITE-CITE

Your simulation uses code contributions which should be cited:
- GPU package (short-range, long-range and three-body potentials):
The log file lists these citations in BibTeX format.

CITE-CITE-CITE-CITE-CITE-CITE-CITE-CITE-CITE-CITE-CITE-CITE-CITE


--------------------------------------------------------------------------
- Using acceleration for lj/cut:
-  with 8 proc(s) per device.
-  Horizontal vector operations: ENABLED
-  Shared memory system: No
--------------------------------------------------------------------------
Device 0: Tesla V100-SXM2-16GB, 80 CUs, 13/16 GB, 1.5 GHZ (Double Precision)
Device 1: Tesla V100-SXM2-16GB, 80 CUs, 1.5 GHZ (Double Precision)
Device 2: Tesla V100-SXM2-16GB, 80 CUs, 1.5 GHZ (Double Precision)
Device 3: Tesla V100-SXM2-16GB, 80 CUs, 1.5 GHZ (Double Precision)
Device 4: Tesla V100-SXM2-16GB, 80 CUs, 1.5 GHZ (Double Precision)
Device 5: Tesla V100-SXM2-16GB, 80 CUs, 1.5 GHZ (Double Precision)
--------------------------------------------------------------------------

Initializing Device and compiling on process 0...Done.
Initializing Devices 0-5 on core 0...Done.
Initializing Devices 0-5 on core 1...Done.
Initializing Devices 0-5 on core 2...Done.
Initializing Devices 0-5 on core 3...Done.
Initializing Devices 0-5 on core 4...Done.
Initializing Devices 0-5 on core 5...Done.
Initializing Devices 0-5 on core 6...Done.
Initializing Devices 0-5 on core 7...Done.

  generated 0 of 0 mixed pair_coeff terms from geometric mixing rule
Setting up Verlet run ...
  Unit style    : lj
  Current step  : 0
  Time step     : 0.012
WARNING: Communication cutoff 1.52 is shorter than a bond length based estimate of 1.855. This may lead to errors. (../comm.cpp:723)
Per MPI rank memory allocation (min/avg/max) = 9.781 | 9.784 | 9.788 Mbytes
Step Temp E_pair E_mol TotEng Press 
       0   0.97026852   0.44484087    20.494523    22.394765    4.6721833 
     100   0.97290118    0.4416544    20.502922    22.403926    4.6830215 
Loop time of 0.746203 on 48 procs for 100 steps with 864000 atoms

Performance: 138943.434 tau/day, 134.012 timesteps/s
99.2% CPU use with 48 MPI tasks x 1 OpenMP threads

MPI task timing breakdown:
Section |  min time  |  avg time  |  max time  |%varavg| %total
---------------------------------------------------------------
Pair    | 0.14767    | 0.22647    | 0.28733    |  11.3 | 30.35
Bond    | 0.070444   | 0.075101   | 0.078      |   0.5 | 10.06
Neigh   | 0.035807   | 0.037574   | 0.039313   |   0.4 |  5.04
Comm    | 0.089443   | 0.11266    | 0.14246    |   5.8 | 15.10
Output  | 0.00015928 | 0.00084965 | 0.0014445  |   0.0 |  0.11
Modify  | 0.13271    | 0.15356    | 0.16268    |   1.6 | 20.58
Other   |            | 0.14       |            |       | 18.76

Nlocal:          18000 ave       18048 max       17932 min
Histogram: 2 1 3 3 5 10 9 5 9 1
Nghost:        6663.04 ave        6763 max        6601 min
Histogram: 5 3 6 15 8 4 2 3 1 1
Neighs:              0 ave           0 max           0 min
Histogram: 48 0 0 0 0 0 0 0 0 0

Total # of neighbors = 0
Ave neighs/atom = 0
Ave special neighs/atom = 1.98
Neighbor list builds = 25
Dangerous builds = 0


---------------------------------------------------------------------
      Device Time Info (average): 
---------------------------------------------------------------------
Data Transfer:   0.1079 s.
Neighbor copy:   0.0450 s.
Neighbor build:  0.0312 s.
Force calc:      0.0499 s.
Device Overhead: 0.0913 s.
Average split:   1.0000.
Lanes / atom:    4.
Vector width:    32.
Max Mem / Proc:  6.38 MB.
CPU Neighbor:    0.0600 s.
CPU Cast/Pack:   0.0421 s.
CPU Driver_Time: 0.0025 s.
CPU Idle_Time:   0.0769 s.
---------------------------------------------------------------------

Total wall time: 0:00:45
