LAMMPS (7 Jan 2022)
  using 1 OpenMP thread(s) per MPI task
Lattice spacing in x,y,z = 3.615 3.615 3.615
Created orthogonal box = (0 0 0) to (289.2 289.2 289.2)
  3 by 4 by 4 MPI processor grid
Created 2048000 atoms
  using lattice units in orthogonal box = (0 0 0) to (289.2 289.2 289.2)
  create_atoms CPU = 0.014 seconds
Reading eam potential file Cu_u3.eam with DATE: 2007-06-11

CITE-CITE-CITE-CITE-CITE-CITE-CITE-CITE-CITE-CITE-CITE-CITE-CITE

Your simulation uses code contributions which should be cited:
- GPU package (short-range, long-range and three-body potentials):
The log file lists these citations in BibTeX format.

CITE-CITE-CITE-CITE-CITE-CITE-CITE-CITE-CITE-CITE-CITE-CITE-CITE


--------------------------------------------------------------------------
- Using acceleration for eam:
-  with 24 proc(s) per device.
-  Horizontal vector operations: ENABLED
-  Shared memory system: No
--------------------------------------------------------------------------
Device 0: Tesla V100-SXM2-16GB, 80 CUs, 8.7/16 GB, 1.5 GHZ (Double Precision)
Device 1: Tesla V100-SXM2-16GB, 80 CUs, 1.5 GHZ (Double Precision)
--------------------------------------------------------------------------

Initializing Device and compiling on process 0...Done.
Initializing Devices 0-1 on core 0...Done.
Initializing Devices 0-1 on core 1...Done.
Initializing Devices 0-1 on core 2...Done.
Initializing Devices 0-1 on core 3...Done.
Initializing Devices 0-1 on core 4...Done.
Initializing Devices 0-1 on core 5...Done.
Initializing Devices 0-1 on core 6...Done.
Initializing Devices 0-1 on core 7...Done.
Initializing Devices 0-1 on core 8...Done.
Initializing Devices 0-1 on core 9...Done.
Initializing Devices 0-1 on core 10...Done.
Initializing Devices 0-1 on core 11...Done.
Initializing Devices 0-1 on core 12...Done.
Initializing Devices 0-1 on core 13...Done.
Initializing Devices 0-1 on core 14...Done.
Initializing Devices 0-1 on core 15...Done.
Initializing Devices 0-1 on core 16...Done.
Initializing Devices 0-1 on core 17...Done.
Initializing Devices 0-1 on core 18...Done.
Initializing Devices 0-1 on core 19...Done.
Initializing Devices 0-1 on core 20...Done.
Initializing Devices 0-1 on core 21...Done.
Initializing Devices 0-1 on core 22...Done.
Initializing Devices 0-1 on core 23...Done.

Setting up Verlet run ...
  Unit style    : metal
  Current step  : 0
  Time step     : 0.005
Per MPI rank memory allocation (min/avg/max) = 13.15 | 14.88 | 15.85 Mbytes
Step Temp E_pair E_mol TotEng Press 
       0         1600     -7249920            0   -6826360.6    18704.149 
      50    780.81547   -7031660.9            0   -6824959.8    52291.364 
     100    798.21786   -7036295.3            0   -6824987.4    51479.467 
Loop time of 2.0255 on 48 procs for 100 steps with 2048000 atoms

Performance: 21.328 ns/day, 1.125 hours/ns, 49.370 timesteps/s
91.3% CPU use with 48 MPI tasks x 1 OpenMP threads

MPI task timing breakdown:
Section |  min time  |  avg time  |  max time  |%varavg| %total
---------------------------------------------------------------
Pair    | 1.3157     | 1.3699     | 1.4328     |   2.2 | 67.63
Neigh   | 0.0099572  | 0.01078    | 0.011741   |   0.4 |  0.53
Comm    | 0.36013    | 0.40511    | 0.44037    |   2.8 | 20.00
Output  | 0.0049268  | 0.015042   | 0.025441   |   4.7 |  0.74
Modify  | 0.042148   | 0.043989   | 0.045751   |   0.3 |  2.17
Other   |            | 0.1806     |            |       |  8.92

Nlocal:        42666.7 ave       42983 max       42305 min
Histogram: 4 8 3 1 2 5 4 13 4 4
Nghost:        23453.6 ave       23637 max       23284 min
Histogram: 3 3 5 6 9 10 4 2 3 3
Neighs:              0 ave           0 max           0 min
Histogram: 48 0 0 0 0 0 0 0 0 0

Total # of neighbors = 0
Ave neighs/atom = 0
Neighbor list builds = 15
Dangerous builds = 0


---------------------------------------------------------------------
      Device Time Info (average): 
---------------------------------------------------------------------
Data Transfer:   0.4353 s.
Neighbor copy:   0.0013 s.
Neighbor build:  0.0387 s.
Force calc:      0.3590 s.
Device Overhead: 0.2820 s.
Average split:   1.0000.
Lanes / atom:    4.
Vector width:    32.
Max Mem / Proc:  39.97 MB.
CPU Neighbor:    0.0633 s.
CPU Cast/Pack:   0.1322 s.
CPU Driver_Time: 0.0046 s.
CPU Idle_Time:   0.2782 s.
---------------------------------------------------------------------

Total wall time: 0:00:47
