LAMMPS (7 Jan 2022)
  using 1 OpenMP thread(s) per MPI task
Reading data file ...
  orthogonal box = (-27.5 -38.5 -36.3646) to (27.5 38.5 36.3615)
  3 by 4 by 4 MPI processor grid
  reading atoms ...
  32000 atoms
  reading velocities ...
  32000 velocities
  scanning bonds ...
  4 = max bonds/atom
  scanning angles ...
  8 = max angles/atom
  scanning dihedrals ...
  18 = max dihedrals/atom
  scanning impropers ...
  2 = max impropers/atom
  reading bonds ...
  27723 bonds
  reading angles ...
  40467 angles
  reading dihedrals ...
  56829 dihedrals
  reading impropers ...
  1034 impropers
Finding 1-2 1-3 1-4 neighbors ...
  special bond factors lj:    0        0        0       
  special bond factors coul:  0        0        0       
     4 = max # of 1-2 neighbors
    12 = max # of 1-3 neighbors
    24 = max # of 1-4 neighbors
    26 = max # of special neighbors
  special bonds CPU = 0.006 seconds
  read_data CPU = 0.380 seconds
Replicating atoms ...
  orthogonal box = (-27.5 -38.5 -36.3646) to (137.5 192.5 181.8137)
  3 by 4 by 4 MPI processor grid
  864000 atoms
  748521 bonds
  1092609 angles
  1534383 dihedrals
  27918 impropers
Finding 1-2 1-3 1-4 neighbors ...
  special bond factors lj:    0        0        0       
  special bond factors coul:  0        0        0       
     4 = max # of 1-2 neighbors
    12 = max # of 1-3 neighbors
    24 = max # of 1-4 neighbors
    26 = max # of special neighbors
  special bonds CPU = 0.045 seconds
  replicate CPU = 0.106 seconds
Finding SHAKE clusters ...
   43659 = # of size 2 clusters
   98091 = # of size 3 clusters
   20169 = # of size 4 clusters
  114291 = # of frozen angles
  find clusters CPU = 0.019 seconds

CITE-CITE-CITE-CITE-CITE-CITE-CITE-CITE-CITE-CITE-CITE-CITE-CITE

Your simulation uses code contributions which should be cited:
- GPU package (short-range, long-range and three-body potentials):
The log file lists these citations in BibTeX format.

CITE-CITE-CITE-CITE-CITE-CITE-CITE-CITE-CITE-CITE-CITE-CITE-CITE

PPPM initialization ...
  using 12-bit tables for long-range coulomb (../kspace.cpp:340)
  G vector (1/distance) = 0.24587501
  grid = 72 96 90
  stencil order = 5
  estimated absolute RMS force accuracy = 0.041154918
  estimated relative force accuracy = 0.00012393681
  using single precision MKL FFT
  3d grid and FFT values/proc = 23548 13824

--------------------------------------------------------------------------
- Using acceleration for pppm:
-  with 8 proc(s) per device.
-  Horizontal vector operations: ENABLED
-  Shared memory system: No
--------------------------------------------------------------------------
Device 0: Tesla V100-SXM2-16GB, 80 CUs, 13/16 GB, 1.5 GHZ (Double Precision)
Device 1: Tesla V100-SXM2-16GB, 80 CUs, 1.5 GHZ (Double Precision)
Device 2: Tesla V100-SXM2-16GB, 80 CUs, 1.5 GHZ (Double Precision)
Device 3: Tesla V100-SXM2-16GB, 80 CUs, 1.5 GHZ (Double Precision)
Device 4: Tesla V100-SXM2-16GB, 80 CUs, 1.5 GHZ (Double Precision)
Device 5: Tesla V100-SXM2-16GB, 80 CUs, 1.5 GHZ (Double Precision)
--------------------------------------------------------------------------

Initializing Device and compiling on process 0...Done.
Initializing Devices 0-5 on core 0...Done.
Initializing Devices 0-5 on core 1...Done.
Initializing Devices 0-5 on core 2...Done.
Initializing Devices 0-5 on core 3...Done.
Initializing Devices 0-5 on core 4...Done.
Initializing Devices 0-5 on core 5...Done.
Initializing Devices 0-5 on core 6...Done.
Initializing Devices 0-5 on core 7...Done.


--------------------------------------------------------------------------
- Using acceleration for lj/charmm/coul/long:
-  with 8 proc(s) per device.
-  Horizontal vector operations: ENABLED
-  Shared memory system: No
--------------------------------------------------------------------------
Device 0: Tesla V100-SXM2-16GB, 80 CUs, 13/16 GB, 1.5 GHZ (Double Precision)
Device 1: Tesla V100-SXM2-16GB, 80 CUs, 1.5 GHZ (Double Precision)
Device 2: Tesla V100-SXM2-16GB, 80 CUs, 1.5 GHZ (Double Precision)
Device 3: Tesla V100-SXM2-16GB, 80 CUs, 1.5 GHZ (Double Precision)
Device 4: Tesla V100-SXM2-16GB, 80 CUs, 1.5 GHZ (Double Precision)
Device 5: Tesla V100-SXM2-16GB, 80 CUs, 1.5 GHZ (Double Precision)
--------------------------------------------------------------------------

Initializing Device and compiling on process 0...Done.
Initializing Devices 0-5 on core 0...Done.
Initializing Devices 0-5 on core 1...Done.
Initializing Devices 0-5 on core 2...Done.
Initializing Devices 0-5 on core 3...Done.
Initializing Devices 0-5 on core 4...Done.
Initializing Devices 0-5 on core 5...Done.
Initializing Devices 0-5 on core 6...Done.
Initializing Devices 0-5 on core 7...Done.

  generated 2278 of 2278 mixed pair_coeff terms from arithmetic mixing rule
Setting up Verlet run ...
  Unit style    : real
  Current step  : 0
  Time step     : 2
Per MPI rank memory allocation (min/avg/max) = 76.67 | 76.69 | 76.73 Mbytes
---------------- Step        0 ----- CPU =      0.0000 (sec) ----------------
TotEng   =   -684607.4746 KinEng   =    579010.4447 Temp     =       299.0277 
PotEng   =  -1263617.9193 E_bond   =     68525.8383 E_angle  =    294877.1036 
E_dihed  =    140718.2355 E_impro  =      5764.8128 E_vdwl   =    -62312.3122 
E_coul   =   5503140.8252 E_long   =  -7214332.4225 Press    =      -148.7691 
Volume   =   8315865.9045 
---------------- Step       50 ----- CPU =      1.5363 (sec) ----------------
TotEng   =   -683885.6770 KinEng   =    580537.2958 Temp     =       299.8162 
PotEng   =  -1264422.9728 E_bond   =     66738.5299 E_angle  =    292590.9686 
E_dihed  =    141472.6763 E_impro  =      6132.6105 E_vdwl   =    -53808.7557 
E_coul   =   5496968.1114 E_long   =  -7214517.1139 Press    =       238.5920 
Volume   =   8316859.4056 
---------------- Step      100 ----- CPU =      2.9811 (sec) ----------------
TotEng   =   -682807.2838 KinEng   =    582947.6851 Temp     =       301.0611 
PotEng   =  -1265754.9689 E_bond   =     69340.3868 E_angle  =    291119.5789 
E_dihed  =    140358.6041 E_impro  =      5850.7810 E_vdwl   =    -51258.4722 
E_coul   =   5493199.5741 E_long   =  -7214365.4217 Press    =        10.9535 
Volume   =   8319641.0293 
Loop time of 2.98122 on 48 procs for 100 steps with 864000 atoms

Performance: 5.796 ns/day, 4.141 hours/ns, 33.543 timesteps/s
95.8% CPU use with 48 MPI tasks x 1 OpenMP threads

MPI task timing breakdown:
Section |  min time  |  avg time  |  max time  |%varavg| %total
---------------------------------------------------------------
Pair    | 0.2654     | 0.35257    | 0.44124    |  10.6 | 11.83
Bond    | 0.51485    | 0.64544    | 0.79373    |  13.5 | 21.65
Kspace  | 0.46592    | 0.61975    | 0.7826     |  13.9 | 20.79
Neigh   | 0.11942    | 0.12531    | 0.12919    |   0.6 |  4.20
Comm    | 0.26359    | 0.27615    | 0.31769    |   2.7 |  9.26
Output  | 0.0002924  | 0.00030694 | 0.00035657 |   0.0 |  0.01
Modify  | 0.76318    | 0.89536    | 0.96405    |   5.0 | 30.03
Other   |            | 0.06634    |            |       |  2.23

Nlocal:          18000 ave       18185 max       17782 min
Histogram: 3 0 6 9 3 9 3 9 3 3
Nghost:        34692.2 ave       34888 max       34424 min
Histogram: 6 0 0 6 9 3 3 9 3 9
Neighs:              0 ave           0 max           0 min
Histogram: 48 0 0 0 0 0 0 0 0 0

Total # of neighbors = 0
Ave neighs/atom = 0
Ave special neighs/atom = 7.431875
Neighbor list builds = 11
Dangerous builds = 0


---------------------------------------------------------------------
      Device Time Info (average): 
---------------------------------------------------------------------
Data Transfer:   0.0123 s.
Neighbor copy:   0.0759 s.
Neighbor build:  0.0920 s.
Force calc:      0.3509 s.
Device Overhead: 0.0893 s.
Average split:   1.0000.
Lanes / atom:    8.
Vector width:    32.
Max Mem / Proc:  87.77 MB.
CPU Neighbor:    0.0713 s.
CPU Cast/Pack:   0.1542 s.
CPU Driver_Time: 0.0017 s.
CPU Idle_Time:   0.0070 s.
---------------------------------------------------------------------



---------------------------------------------------------------------
    Device Time Info (average) for kspace: 
---------------------------------------------------------------------
Data Out:        0.0067 s.
Data In:         0.0419 s.
Kernel (map):    0.1826 s.
Kernel (rho):    0.0161 s.
Force interp:    0.0910 s.
Total rho:       0.2055 s.
Total interp:    0.1329 s.
Force copy:      0.0128 s.
Total:           0.3512 s.
CPU Poisson:     0.5116 s.
CPU Data Cast:   0.0140 s.
CPU Idle Time:   0.1155 s.
Max Mem / Proc:  4.63 MB.
---------------------------------------------------------------------

Total wall time: 0:00:48
