LAMMPS (7 Jan 2022)
  using 1 OpenMP thread(s) per MPI task
Reading data file ...
  orthogonal box = (-16.796 -16.796 -16.796) to (16.796 16.796 16.796)
  3 by 4 by 4 MPI processor grid
  reading atoms ...
  32000 atoms
  reading velocities ...
  32000 velocities
  scanning bonds ...
  1 = max bonds/atom
  reading bonds ...
  31680 bonds
Finding 1-2 1-3 1-4 neighbors ...
  special bond factors lj:    0        1        1       
  special bond factors coul:  0        1        1       
     2 = max # of 1-2 neighbors
     2 = max # of special neighbors
  special bonds CPU = 0.006 seconds
  read_data CPU = 0.200 seconds
Replicating atoms ...
  orthogonal box = (-16.796 -16.796 -16.796) to (117.572 117.572 117.572)
  3 by 4 by 4 MPI processor grid
  2048000 atoms
  2027520 bonds
Finding 1-2 1-3 1-4 neighbors ...
  special bond factors lj:    0        1        1       
  special bond factors coul:  0        1        1       
     2 = max # of 1-2 neighbors
     2 = max # of special neighbors
  special bonds CPU = 0.026 seconds
  replicate CPU = 0.084 seconds

CITE-CITE-CITE-CITE-CITE-CITE-CITE-CITE-CITE-CITE-CITE-CITE-CITE

Your simulation uses code contributions which should be cited:
- GPU package (short-range, long-range and three-body potentials):
The log file lists these citations in BibTeX format.

CITE-CITE-CITE-CITE-CITE-CITE-CITE-CITE-CITE-CITE-CITE-CITE-CITE


--------------------------------------------------------------------------
- Using acceleration for lj/cut:
-  with 8 proc(s) per device.
-  Horizontal vector operations: ENABLED
-  Shared memory system: No
--------------------------------------------------------------------------
Device 0: Tesla V100-SXM2-16GB, 80 CUs, 13/16 GB, 1.5 GHZ (Mixed Precision)
Device 1: Tesla V100-SXM2-16GB, 80 CUs, 1.5 GHZ (Mixed Precision)
Device 2: Tesla V100-SXM2-16GB, 80 CUs, 1.5 GHZ (Mixed Precision)
Device 3: Tesla V100-SXM2-16GB, 80 CUs, 1.5 GHZ (Mixed Precision)
Device 4: Tesla V100-SXM2-16GB, 80 CUs, 1.5 GHZ (Mixed Precision)
Device 5: Tesla V100-SXM2-16GB, 80 CUs, 1.5 GHZ (Mixed Precision)
--------------------------------------------------------------------------

Initializing Device and compiling on process 0...Done.
Initializing Devices 0-5 on core 0...Done.
Initializing Devices 0-5 on core 1...Done.
Initializing Devices 0-5 on core 2...Done.
Initializing Devices 0-5 on core 3...Done.
Initializing Devices 0-5 on core 4...Done.
Initializing Devices 0-5 on core 5...Done.
Initializing Devices 0-5 on core 6...Done.
Initializing Devices 0-5 on core 7...Done.

  generated 0 of 0 mixed pair_coeff terms from geometric mixing rule
Setting up Verlet run ...
  Unit style    : lj
  Current step  : 0
  Time step     : 0.012
WARNING: Communication cutoff 1.52 is shorter than a bond length based estimate of 1.855. This may lead to errors. (../comm.cpp:723)
Per MPI rank memory allocation (min/avg/max) = 18.37 | 18.37 | 18.38 Mbytes
Step Temp E_pair E_mol TotEng Press 
       0   0.97026787   0.44484102    20.494523    22.394765    4.6721851 
     100   0.97392966    0.4421072    20.501128    22.404129    4.6871657 
Loop time of 1.54834 on 48 procs for 100 steps with 2048000 atoms

Performance: 66961.919 tau/day, 64.585 timesteps/s
98.0% CPU use with 48 MPI tasks x 1 OpenMP threads

MPI task timing breakdown:
Section |  min time  |  avg time  |  max time  |%varavg| %total
---------------------------------------------------------------
Pair    | 0.25489    | 0.3247     | 0.39383    |   8.8 | 20.97
Bond    | 0.20271    | 0.21262    | 0.21942    |   0.8 | 13.73
Neigh   | 0.12523    | 0.12836    | 0.132      |   0.5 |  8.29
Comm    | 0.24649    | 0.2812     | 0.32442    |   5.3 | 18.16
Output  | 0.00042191 | 0.0013253  | 0.0024103  |   2.4 |  0.09
Modify  | 0.34002    | 0.36336    | 0.39138    |   1.6 | 23.47
Other   |            | 0.2368     |            |       | 15.29

Nlocal:        42666.7 ave       42750 max       42595 min
Histogram: 1 4 8 8 7 6 6 5 2 1
Nghost:        11511.3 ave       11658 max       11431 min
Histogram: 6 3 12 7 10 6 3 0 0 1
Neighs:              0 ave           0 max           0 min
Histogram: 48 0 0 0 0 0 0 0 0 0

Total # of neighbors = 0
Ave neighs/atom = 0
Ave special neighs/atom = 1.98
Neighbor list builds = 28
Dangerous builds = 0


---------------------------------------------------------------------
      Device Time Info (average): 
---------------------------------------------------------------------
Data Transfer:   0.1667 s.
Neighbor copy:   0.0889 s.
Neighbor build:  0.0410 s.
Force calc:      0.0428 s.
Device Overhead: 0.0899 s.
Average split:   1.0000.
Lanes / atom:    4.
Vector width:    32.
Max Mem / Proc:  13.99 MB.
CPU Neighbor:    0.0887 s.
CPU Cast/Pack:   0.1084 s.
CPU Driver_Time: 0.0028 s.
CPU Idle_Time:   0.0317 s.
---------------------------------------------------------------------

Total wall time: 0:00:46
