LAMMPS (7 Jan 2022)
  using 1 OpenMP thread(s) per MPI task
Lattice spacing in x,y,z = 1.6795962 1.6795962 1.6795962
Created orthogonal box = (0 0 0) to (67.183848 67.183848 67.183848)
  3 by 4 by 4 MPI processor grid
Created 256000 atoms
  using lattice units in orthogonal box = (0 0 0) to (67.183848 67.183848 67.183848)
  create_atoms CPU = 0.002 seconds

CITE-CITE-CITE-CITE-CITE-CITE-CITE-CITE-CITE-CITE-CITE-CITE-CITE

Your simulation uses code contributions which should be cited:
- GPU package (short-range, long-range and three-body potentials):
The log file lists these citations in BibTeX format.

CITE-CITE-CITE-CITE-CITE-CITE-CITE-CITE-CITE-CITE-CITE-CITE-CITE


--------------------------------------------------------------------------
- Using acceleration for lj/cut:
-  with 8 proc(s) per device.
-  Horizontal vector operations: ENABLED
-  Shared memory system: No
--------------------------------------------------------------------------
Device 0: Tesla V100-SXM2-16GB, 80 CUs, 13/16 GB, 1.5 GHZ (Mixed Precision)
Device 1: Tesla V100-SXM2-16GB, 80 CUs, 1.5 GHZ (Mixed Precision)
Device 2: Tesla V100-SXM2-16GB, 80 CUs, 1.5 GHZ (Mixed Precision)
Device 3: Tesla V100-SXM2-16GB, 80 CUs, 1.5 GHZ (Mixed Precision)
Device 4: Tesla V100-SXM2-16GB, 80 CUs, 1.5 GHZ (Mixed Precision)
Device 5: Tesla V100-SXM2-16GB, 80 CUs, 1.5 GHZ (Mixed Precision)
--------------------------------------------------------------------------

Initializing Device and compiling on process 0...Done.
Initializing Devices 0-5 on core 0...Done.
Initializing Devices 0-5 on core 1...Done.
Initializing Devices 0-5 on core 2...Done.
Initializing Devices 0-5 on core 3...Done.
Initializing Devices 0-5 on core 4...Done.
Initializing Devices 0-5 on core 5...Done.
Initializing Devices 0-5 on core 6...Done.
Initializing Devices 0-5 on core 7...Done.

  generated 0 of 0 mixed pair_coeff terms from geometric mixing rule
Setting up Verlet run ...
  Unit style    : lj
  Current step  : 0
  Time step     : 0.005
Per MPI rank memory allocation (min/avg/max) = 2.395 | 2.454 | 2.489 Mbytes
Step Temp E_pair E_mol TotEng Press 
       0         1.44   -6.7733683            0   -4.6133768   -5.0196737 
     100   0.75865617    -5.760326            0   -4.6223462   0.19586079 
Loop time of 0.150318 on 48 procs for 100 steps with 256000 atoms

Performance: 287391.212 tau/day, 665.257 timesteps/s
89.2% CPU use with 48 MPI tasks x 1 OpenMP threads

MPI task timing breakdown:
Section |  min time  |  avg time  |  max time  |%varavg| %total
---------------------------------------------------------------
Pair    | 0.047177   | 0.063001   | 0.078287   |   3.5 | 41.91
Neigh   | 1.225e-06  | 2.0543e-06 | 3.08e-06   |   0.0 |  0.00
Comm    | 0.068262   | 0.082711   | 0.099046   |   3.0 | 55.02
Output  | 8.471e-05  | 0.00095858 | 0.0017727  |   0.0 |  0.64
Modify  | 0.001927   | 0.0019997  | 0.0022298  |   0.1 |  1.33
Other   |            | 0.001646   |            |       |  1.10

Nlocal:        5333.33 ave        5417 max        5249 min
Histogram: 3 2 7 8 6 4 6 1 8 3
Nghost:        6745.12 ave        6861 max        6575 min
Histogram: 7 8 1 0 0 1 3 8 9 11
Neighs:              0 ave           0 max           0 min
Histogram: 48 0 0 0 0 0 0 0 0 0

Total # of neighbors = 0
Ave neighs/atom = 0
Neighbor list builds = 5
Dangerous builds not checked


---------------------------------------------------------------------
      Device Time Info (average): 
---------------------------------------------------------------------
Data Transfer:   0.0201 s.
Neighbor copy:   0.0002 s.
Neighbor build:  0.0038 s.
Force calc:      0.0353 s.
Device Overhead: 0.0834 s.
Average split:   1.0000.
Lanes / atom:    4.
Vector width:    32.
Max Mem / Proc:  7.89 MB.
CPU Neighbor:    0.0253 s.
CPU Cast/Pack:   0.0083 s.
CPU Driver_Time: 0.0021 s.
CPU Idle_Time:   0.0462 s.
---------------------------------------------------------------------

Total wall time: 0:00:29
