LAMMPS (7 Jan 2022)
  using 1 OpenMP thread(s) per MPI task
Reading data file ...
  orthogonal box = (-27.5 -38.5 -36.3646) to (27.5 38.5 36.3615)
  2 by 4 by 2 MPI processor grid
  reading atoms ...
  32000 atoms
  reading velocities ...
  32000 velocities
  scanning bonds ...
  4 = max bonds/atom
  scanning angles ...
  8 = max angles/atom
  scanning dihedrals ...
  18 = max dihedrals/atom
  scanning impropers ...
  2 = max impropers/atom
  reading bonds ...
  27723 bonds
  reading angles ...
  40467 angles
  reading dihedrals ...
  56829 dihedrals
  reading impropers ...
  1034 impropers
Finding 1-2 1-3 1-4 neighbors ...
  special bond factors lj:    0        0        0       
  special bond factors coul:  0        0        0       
     4 = max # of 1-2 neighbors
    12 = max # of 1-3 neighbors
    24 = max # of 1-4 neighbors
    26 = max # of special neighbors
  special bonds CPU = 0.007 seconds
  read_data CPU = 0.340 seconds
Replicating atoms ...
  orthogonal box = (-27.5 -38.5 -36.3646) to (82.5 115.5 109.0876)
  2 by 4 by 2 MPI processor grid
  256000 atoms
  221784 bonds
  323736 angles
  454632 dihedrals
  8272 impropers
Finding 1-2 1-3 1-4 neighbors ...
  special bond factors lj:    0        0        0       
  special bond factors coul:  0        0        0       
     4 = max # of 1-2 neighbors
    12 = max # of 1-3 neighbors
    24 = max # of 1-4 neighbors
    26 = max # of special neighbors
  special bonds CPU = 0.029 seconds
  replicate CPU = 0.073 seconds
Finding SHAKE clusters ...
   12936 = # of size 2 clusters
   29064 = # of size 3 clusters
    5976 = # of size 4 clusters
   33864 = # of frozen angles
  find clusters CPU = 0.012 seconds

CITE-CITE-CITE-CITE-CITE-CITE-CITE-CITE-CITE-CITE-CITE-CITE-CITE

Your simulation uses code contributions which should be cited:
- GPU package (short-range, long-range and three-body potentials):
The log file lists these citations in BibTeX format.

CITE-CITE-CITE-CITE-CITE-CITE-CITE-CITE-CITE-CITE-CITE-CITE-CITE

PPPM initialization ...
  using 12-bit tables for long-range coulomb (../kspace.cpp:340)
  G vector (1/distance) = 0.24587501
  grid = 48 64 60
  stencil order = 5
  estimated absolute RMS force accuracy = 0.041154918
  estimated relative force accuracy = 0.00012393681
  using single precision MKL FFT
  3d grid and FFT values/proc = 21315 12288

--------------------------------------------------------------------------
- Using acceleration for pppm:
-  with 16 proc(s) per device.
-  Horizontal vector operations: ENABLED
-  Shared memory system: No
--------------------------------------------------------------------------
Device 0: Tesla V100-SXM2-16GB, 80 CUs, 11/16 GB, 1.5 GHZ (Mixed Precision)
--------------------------------------------------------------------------

Initializing Device and compiling on process 0...Done.
Initializing Device 0 on core 0...Done.
Initializing Device 0 on core 1...Done.
Initializing Device 0 on core 2...Done.
Initializing Device 0 on core 3...Done.
Initializing Device 0 on core 4...Done.
Initializing Device 0 on core 5...Done.
Initializing Device 0 on core 6...Done.
Initializing Device 0 on core 7...Done.
Initializing Device 0 on core 8...Done.
Initializing Device 0 on core 9...Done.
Initializing Device 0 on core 10...Done.
Initializing Device 0 on core 11...Done.
Initializing Device 0 on core 12...Done.
Initializing Device 0 on core 13...Done.
Initializing Device 0 on core 14...Done.
Initializing Device 0 on core 15...Done.


--------------------------------------------------------------------------
- Using acceleration for lj/charmm/coul/long:
-  with 16 proc(s) per device.
-  Horizontal vector operations: ENABLED
-  Shared memory system: No
--------------------------------------------------------------------------
Device 0: Tesla V100-SXM2-16GB, 80 CUs, 11/16 GB, 1.5 GHZ (Mixed Precision)
--------------------------------------------------------------------------

Initializing Device and compiling on process 0...Done.
Initializing Device 0 on core 0...Done.
Initializing Device 0 on core 1...Done.
Initializing Device 0 on core 2...Done.
Initializing Device 0 on core 3...Done.
Initializing Device 0 on core 4...Done.
Initializing Device 0 on core 5...Done.
Initializing Device 0 on core 6...Done.
Initializing Device 0 on core 7...Done.
Initializing Device 0 on core 8...Done.
Initializing Device 0 on core 9...Done.
Initializing Device 0 on core 10...Done.
Initializing Device 0 on core 11...Done.
Initializing Device 0 on core 12...Done.
Initializing Device 0 on core 13...Done.
Initializing Device 0 on core 14...Done.
Initializing Device 0 on core 15...Done.

  generated 2278 of 2278 mixed pair_coeff terms from arithmetic mixing rule
Setting up Verlet run ...
  Unit style    : real
  Current step  : 0
  Time step     : 2
Per MPI rank memory allocation (min/avg/max) = 73.7 | 73.75 | 73.78 Mbytes
---------------- Step        0 ----- CPU =      0.0000 (sec) ----------------
TotEng   =   -202846.6818 KinEng   =    171558.6503 Temp     =       299.0288 
PotEng   =   -374405.3320 E_bond   =     20303.9521 E_angle  =     87370.9937 
E_dihed  =     41694.2920 E_impro  =      1708.0927 E_vdwl   =    -18462.9051 
E_coul   =   1630560.2223 E_long   =  -2137579.9797 Press    =      -148.7798 
Volume   =   2463960.2680 
---------------- Step       50 ----- CPU =      1.1999 (sec) ----------------
TotEng   =   -202633.4052 KinEng   =    172010.7443 Temp     =       299.8168 
PotEng   =   -374644.1496 E_bond   =     19774.3527 E_angle  =     86693.5110 
E_dihed  =     41917.8106 E_impro  =      1817.0672 E_vdwl   =    -15943.3801 
E_coul   =   1628731.1919 E_long   =  -2137634.7028 Press    =       238.5777 
Volume   =   2464254.6361 
---------------- Step      100 ----- CPU =      2.4149 (sec) ----------------
TotEng   =   -202315.0232 KinEng   =    172724.3765 Temp     =       301.0607 
PotEng   =   -375039.3997 E_bond   =     20545.2204 E_angle  =     86257.3374 
E_dihed  =     41587.6741 E_impro  =      1733.5574 E_vdwl   =    -15187.8620 
E_coul   =   1627614.4378 E_long   =  -2137589.7648 Press    =        10.9174 
Volume   =   2465078.7658 
---------------- Step      150 ----- CPU =      3.6304 (sec) ----------------
TotEng   =   -202051.8999 KinEng   =    172224.1478 Temp     =       300.1888 
PotEng   =   -374276.0477 E_bond   =     20449.1065 E_angle  =     86833.0141 
E_dihed  =     42118.0590 E_impro  =      1625.1215 E_vdwl   =    -16579.4089 
E_coul   =   1628814.3286 E_long   =  -2137536.2684 Press    =       242.9421 
Volume   =   2468142.7174 
---------------- Step      200 ----- CPU =      4.7963 (sec) ----------------
TotEng   =   -200656.0667 KinEng   =    172275.5330 Temp     =       300.2783 
PotEng   =   -372931.5997 E_bond   =     19927.1150 E_angle  =     88604.7802 
E_dihed  =     41778.2136 E_impro  =      1868.4140 E_vdwl   =    -16990.9476 
E_coul   =   1629457.5233 E_long   =  -2137576.6981 Press    =        69.6149 
Volume   =   2471981.2683 
---------------- Step      250 ----- CPU =      6.0726 (sec) ----------------
TotEng   =   -199570.2973 KinEng   =    171871.5890 Temp     =       299.5743 
PotEng   =   -371441.8863 E_bond   =     20375.1231 E_angle  =     88867.9693 
E_dihed  =     41942.2478 E_impro  =      1699.8215 E_vdwl   =    -17426.5923 
E_coul   =   1630793.6743 E_long   =  -2137694.1300 Press    =      -170.2836 
Volume   =   2475232.6005 
---------------- Step      300 ----- CPU =      7.2468 (sec) ----------------
TotEng   =   -199628.2145 KinEng   =    172382.6133 Temp     =       300.4650 
PotEng   =   -372010.8278 E_bond   =     20522.3345 E_angle  =     87552.1194 
E_dihed  =     41740.2631 E_impro  =      1754.0742 E_vdwl   =    -17534.4108 
E_coul   =   1631397.8201 E_long   =  -2137443.0283 Press    =      -343.0310 
Volume   =   2477604.7213 
---------------- Step      350 ----- CPU =      8.4586 (sec) ----------------
TotEng   =   -200644.1720 KinEng   =    172323.6175 Temp     =       300.3621 
PotEng   =   -372967.7895 E_bond   =     20748.1164 E_angle  =     87978.3290 
E_dihed  =     42009.9188 E_impro  =      1685.4587 E_vdwl   =    -17255.8879 
E_coul   =   1629459.7751 E_long   =  -2137593.4997 Press    =      -458.0243 
Volume   =   2478713.2610 
---------------- Step      400 ----- CPU =      9.6315 (sec) ----------------
TotEng   =   -201956.3404 KinEng   =    171034.0137 Temp     =       298.1144 
PotEng   =   -372990.3541 E_bond   =     20291.9598 E_angle  =     88154.9276 
E_dihed  =     41563.8229 E_impro  =      1716.6725 E_vdwl   =    -16689.3367 
E_coul   =   1629513.8007 E_long   =  -2137542.2009 Press    =       225.9829 
Volume   =   2478899.3880 
---------------- Step      450 ----- CPU =     10.9227 (sec) ----------------
TotEng   =   -201947.9154 KinEng   =    171096.4922 Temp     =       298.2233 
PotEng   =   -373044.4076 E_bond   =     20109.9112 E_angle  =     87500.9939 
E_dihed  =     42262.1777 E_impro  =      1735.7455 E_vdwl   =    -17648.8969 
E_coul   =   1630564.6178 E_long   =  -2137568.9569 Press    =       153.9946 
Volume   =   2478542.8487 
---------------- Step      500 ----- CPU =     12.1642 (sec) ----------------
TotEng   =   -200011.8584 KinEng   =    172868.5396 Temp     =       301.3120 
PotEng   =   -372880.3980 E_bond   =     20602.9138 E_angle  =     87486.4759 
E_dihed  =     42000.9327 E_impro  =      1697.8088 E_vdwl   =    -17138.0336 
E_coul   =   1630045.2595 E_long   =  -2137575.7552 Press    =      -244.5495 
Volume   =   2477665.3521 
---------------- Step      550 ----- CPU =     13.3835 (sec) ----------------
TotEng   =   -198820.3136 KinEng   =    173464.4422 Temp     =       302.3506 
PotEng   =   -372284.7558 E_bond   =     20361.1745 E_angle  =     87405.8926 
E_dihed  =     41852.3529 E_impro  =      1838.9720 E_vdwl   =    -16274.5884 
E_coul   =   1630095.4561 E_long   =  -2137564.0155 Press    =       333.7653 
Volume   =   2476978.4176 
---------------- Step      600 ----- CPU =     14.6021 (sec) ----------------
TotEng   =   -199472.6546 KinEng   =    173606.9749 Temp     =       302.5991 
PotEng   =   -373079.6295 E_bond   =     20206.0026 E_angle  =     87688.3067 
E_dihed  =     42131.1388 E_impro  =      1779.5072 E_vdwl   =    -17660.0700 
E_coul   =   1630305.5628 E_long   =  -2137530.0777 Press    =      -208.1577 
Volume   =   2477822.2757 
Loop time of 14.6022 on 16 procs for 600 steps with 256000 atoms

Performance: 7.100 ns/day, 3.380 hours/ns, 41.090 timesteps/s
97.4% CPU use with 16 MPI tasks x 1 OpenMP threads

MPI task timing breakdown:
Section |  min time  |  avg time  |  max time  |%varavg| %total
---------------------------------------------------------------
Pair    | 2.713      | 2.9315     | 3.1451     |   5.4 | 20.08
Bond    | 3.059      | 3.2356     | 3.4414     |   7.4 | 22.16
Kspace  | 2.731      | 2.9404     | 3.1337     |   7.9 | 20.14
Neigh   | 0.45911    | 0.46317    | 0.46603    |   0.3 |  3.17
Comm    | 0.83959    | 0.87436    | 0.96085    |   4.8 |  5.99
Output  | 0.0014865  | 0.0015161  | 0.0017978  |   0.2 |  0.01
Modify  | 3.7017     | 3.947      | 4.1993     |   7.1 | 27.03
Other   |            | 0.2087     |            |       |  1.43

Nlocal:          16000 ave       16053 max       15932 min
Histogram: 1 0 3 1 2 1 2 1 3 2
Nghost:        33403.6 ave       33471 max       33370 min
Histogram: 4 1 1 3 4 2 0 0 0 1
Neighs:              0 ave           0 max           0 min
Histogram: 16 0 0 0 0 0 0 0 0 0

Total # of neighbors = 0
Ave neighs/atom = 0
Ave special neighs/atom = 7.431875
Neighbor list builds = 69
Dangerous builds = 0


---------------------------------------------------------------------
      Device Time Info (average): 
---------------------------------------------------------------------
Data Transfer:   0.0476 s.
Neighbor copy:   0.2470 s.
Neighbor build:  0.9160 s.
Force calc:      3.0303 s.
Device Overhead: 1.0656 s.
Average split:   1.0000.
Lanes / atom:    8.
Vector width:    32.
Max Mem / Proc:  76.34 MB.
CPU Neighbor:    0.1034 s.
CPU Cast/Pack:   0.2589 s.
CPU Driver_Time: 0.0119 s.
CPU Idle_Time:   0.4243 s.
---------------------------------------------------------------------



---------------------------------------------------------------------
    Device Time Info (average) for kspace: 
---------------------------------------------------------------------
Data Out:        0.0241 s.
Data In:         0.0767 s.
Kernel (map):    1.7040 s.
Kernel (rho):    0.0850 s.
Force interp:    1.7903 s.
Total rho:       1.8131 s.
Total interp:    1.8670 s.
Force copy:      0.0354 s.
Total:           3.7154 s.
CPU Poisson:     1.4325 s.
CPU Data Cast:   0.0425 s.
CPU Idle Time:   1.4900 s.
Max Mem / Proc:  4.09 MB.
---------------------------------------------------------------------

Total wall time: 0:00:36
