LAMMPS (7 Jan 2022)
  using 1 OpenMP thread(s) per MPI task
Reading data file ...
  orthogonal box = (-27.5 -38.5 -36.3646) to (27.5 38.5 36.3615)
  3 by 4 by 4 MPI processor grid
  reading atoms ...
  32000 atoms
  reading velocities ...
  32000 velocities
  scanning bonds ...
  4 = max bonds/atom
  scanning angles ...
  8 = max angles/atom
  scanning dihedrals ...
  18 = max dihedrals/atom
  scanning impropers ...
  2 = max impropers/atom
  reading bonds ...
  27723 bonds
  reading angles ...
  40467 angles
  reading dihedrals ...
  56829 dihedrals
  reading impropers ...
  1034 impropers
Finding 1-2 1-3 1-4 neighbors ...
  special bond factors lj:    0        0        0       
  special bond factors coul:  0        0        0       
     4 = max # of 1-2 neighbors
    12 = max # of 1-3 neighbors
    24 = max # of 1-4 neighbors
    26 = max # of special neighbors
  special bonds CPU = 0.007 seconds
  read_data CPU = 0.362 seconds
Replicating atoms ...
  orthogonal box = (-27.5 -38.5 -36.3646) to (137.5 192.5 181.8137)
  3 by 4 by 4 MPI processor grid
  864000 atoms
  748521 bonds
  1092609 angles
  1534383 dihedrals
  27918 impropers
Finding 1-2 1-3 1-4 neighbors ...
  special bond factors lj:    0        0        0       
  special bond factors coul:  0        0        0       
     4 = max # of 1-2 neighbors
    12 = max # of 1-3 neighbors
    24 = max # of 1-4 neighbors
    26 = max # of special neighbors
  special bonds CPU = 0.043 seconds
  replicate CPU = 0.105 seconds
Finding SHAKE clusters ...
   43659 = # of size 2 clusters
   98091 = # of size 3 clusters
   20169 = # of size 4 clusters
  114291 = # of frozen angles
  find clusters CPU = 0.021 seconds

CITE-CITE-CITE-CITE-CITE-CITE-CITE-CITE-CITE-CITE-CITE-CITE-CITE

Your simulation uses code contributions which should be cited:
- GPU package (short-range, long-range and three-body potentials):
The log file lists these citations in BibTeX format.

CITE-CITE-CITE-CITE-CITE-CITE-CITE-CITE-CITE-CITE-CITE-CITE-CITE

PPPM initialization ...
  using 12-bit tables for long-range coulomb (../kspace.cpp:340)
  G vector (1/distance) = 0.24587501
  grid = 72 96 90
  stencil order = 5
  estimated absolute RMS force accuracy = 0.041154918
  estimated relative force accuracy = 0.00012393681
  using single precision MKL FFT
  3d grid and FFT values/proc = 23548 13824

--------------------------------------------------------------------------
- Using acceleration for pppm:
-  with 6 proc(s) per device.
-  Horizontal vector operations: ENABLED
-  Shared memory system: No
--------------------------------------------------------------------------
Device 0: Tesla V100-SXM2-16GB, 80 CUs, 14/16 GB, 1.5 GHZ (Mixed Precision)
Device 1: Tesla V100-SXM2-16GB, 80 CUs, 1.5 GHZ (Mixed Precision)
Device 2: Tesla V100-SXM2-16GB, 80 CUs, 1.5 GHZ (Mixed Precision)
Device 3: Tesla V100-SXM2-16GB, 80 CUs, 1.5 GHZ (Mixed Precision)
Device 4: Tesla V100-SXM2-16GB, 80 CUs, 1.5 GHZ (Mixed Precision)
Device 5: Tesla V100-SXM2-16GB, 80 CUs, 1.5 GHZ (Mixed Precision)
Device 6: Tesla V100-SXM2-16GB, 80 CUs, 1.5 GHZ (Mixed Precision)
Device 7: Tesla V100-SXM2-16GB, 80 CUs, 1.5 GHZ (Mixed Precision)
--------------------------------------------------------------------------

Initializing Device and compiling on process 0...Done.
Initializing Devices 0-7 on core 0...Done.
Initializing Devices 0-7 on core 1...Done.
Initializing Devices 0-7 on core 2...Done.
Initializing Devices 0-7 on core 3...Done.
Initializing Devices 0-7 on core 4...Done.
Initializing Devices 0-7 on core 5...Done.


--------------------------------------------------------------------------
- Using acceleration for lj/charmm/coul/long:
-  with 6 proc(s) per device.
-  Horizontal vector operations: ENABLED
-  Shared memory system: No
--------------------------------------------------------------------------
Device 0: Tesla V100-SXM2-16GB, 80 CUs, 14/16 GB, 1.5 GHZ (Mixed Precision)
Device 1: Tesla V100-SXM2-16GB, 80 CUs, 1.5 GHZ (Mixed Precision)
Device 2: Tesla V100-SXM2-16GB, 80 CUs, 1.5 GHZ (Mixed Precision)
Device 3: Tesla V100-SXM2-16GB, 80 CUs, 1.5 GHZ (Mixed Precision)
Device 4: Tesla V100-SXM2-16GB, 80 CUs, 1.5 GHZ (Mixed Precision)
Device 5: Tesla V100-SXM2-16GB, 80 CUs, 1.5 GHZ (Mixed Precision)
Device 6: Tesla V100-SXM2-16GB, 80 CUs, 1.5 GHZ (Mixed Precision)
Device 7: Tesla V100-SXM2-16GB, 80 CUs, 1.5 GHZ (Mixed Precision)
--------------------------------------------------------------------------

Initializing Device and compiling on process 0...Done.
Initializing Devices 0-7 on core 0...Done.
Initializing Devices 0-7 on core 1...Done.
Initializing Devices 0-7 on core 2...Done.
Initializing Devices 0-7 on core 3...Done.
Initializing Devices 0-7 on core 4...Done.
Initializing Devices 0-7 on core 5...Done.

  generated 2278 of 2278 mixed pair_coeff terms from arithmetic mixing rule
Setting up Verlet run ...
  Unit style    : real
  Current step  : 0
  Time step     : 2
Per MPI rank memory allocation (min/avg/max) = 74.46 | 74.48 | 74.51 Mbytes
---------------- Step        0 ----- CPU =      0.0000 (sec) ----------------
TotEng   =   -684607.4714 KinEng   =    579010.4447 Temp     =       299.0277 
PotEng   =  -1263617.9161 E_bond   =     68525.8383 E_angle  =    294877.1036 
E_dihed  =    140718.2355 E_impro  =      5764.8128 E_vdwl   =    -62312.3570 
E_coul   =   5503140.8793 E_long   =  -7214332.4286 Press    =      -148.7819 
Volume   =   8315865.9045 
---------------- Step       50 ----- CPU =      1.4435 (sec) ----------------
TotEng   =   -683885.4148 KinEng   =    580537.3361 Temp     =       299.8163 
PotEng   =  -1264422.7509 E_bond   =     66738.5302 E_angle  =    292590.9527 
E_dihed  =    141472.6696 E_impro  =      6132.6082 E_vdwl   =    -53808.7679 
E_coul   =   5496968.3669 E_long   =  -7214517.1106 Press    =       238.5948 
Volume   =   8316859.4032 
---------------- Step      100 ----- CPU =      2.8704 (sec) ----------------
TotEng   =   -682807.5293 KinEng   =    582947.8014 Temp     =       301.0611 
PotEng   =  -1265755.3308 E_bond   =     69340.3931 E_angle  =    291119.6198 
E_dihed  =    140358.5978 E_impro  =      5850.7784 E_vdwl   =    -51258.7577 
E_coul   =   5493199.4562 E_long   =  -7214365.4184 Press    =        10.9313 
Volume   =   8319641.0140 
---------------- Step      150 ----- CPU =      4.2872 (sec) ----------------
TotEng   =   -681917.2502 KinEng   =    581260.6026 Temp     =       300.1898 
PotEng   =  -1263177.8528 E_bond   =     69016.1331 E_angle  =    293062.9964 
E_dihed  =    142148.7780 E_impro  =      5484.8570 E_vdwl   =    -55955.4645 
E_coul   =   5497249.7079 E_long   =  -7214184.8606 Press    =       242.9353 
Volume   =   8329982.4637 
---------------- Step      200 ----- CPU =      5.7135 (sec) ----------------
TotEng   =   -677204.2890 KinEng   =    581434.5460 Temp     =       300.2796 
PotEng   =  -1258638.8350 E_bond   =     67254.4130 E_angle  =    299042.8589 
E_dihed  =    141001.7007 E_impro  =      6305.8605 E_vdwl   =    -57346.4463 
E_coul   =   5499424.8395 E_long   =  -7214322.0614 Press    =        69.5951 
Volume   =   8342938.2643 
---------------- Step      250 ----- CPU =      7.1163 (sec) ----------------
TotEng   =   -673534.2233 KinEng   =    580070.0002 Temp     =       299.5749 
PotEng   =  -1253604.2234 E_bond   =     68766.4858 E_angle  =    299932.0246 
E_dihed  =    141557.7087 E_impro  =      5736.4197 E_vdwl   =    -58823.9623 
E_coul   =   5503944.9653 E_long   =  -7214717.8651 Press    =      -170.3401 
Volume   =   8353914.5522 
---------------- Step      300 ----- CPU =      8.5482 (sec) ----------------
TotEng   =   -673721.2666 KinEng   =    581819.7722 Temp     =       300.4786 
PotEng   =  -1255541.0388 E_bond   =     69265.9115 E_angle  =    295497.0448 
E_dihed  =    140875.6289 E_impro  =      5919.5296 E_vdwl   =    -59122.5010 
E_coul   =   5505908.7426 E_long   =  -7213885.3952 Press    =      -341.7201 
Volume   =   8361922.4183 
---------------- Step      350 ----- CPU =      9.9620 (sec) ----------------
TotEng   =   -677182.6101 KinEng   =    581468.4564 Temp     =       300.2971 
PotEng   =  -1258651.0665 E_bond   =     70026.1675 E_angle  =    296905.3429 
E_dihed  =    141771.5008 E_impro  =      5692.6539 E_vdwl   =    -58293.7489 
E_coul   =   5499626.0773 E_long   =  -7214379.0600 Press    =      -457.7585 
Volume   =   8365699.3458 
---------------- Step      400 ----- CPU =     11.3814 (sec) ----------------
TotEng   =   -681651.8592 KinEng   =    577306.3590 Temp     =       298.1476 
PotEng   =  -1258958.2183 E_bond   =     68463.6776 E_angle  =    297502.7915 
E_dihed  =    140281.6718 E_impro  =      5793.0429 E_vdwl   =    -56823.5352 
E_coul   =   5500078.7942 E_long   =  -7214254.6611 Press    =       209.5140 
Volume   =   8366267.3206 
---------------- Step      450 ----- CPU =     12.8151 (sec) ----------------
TotEng   =   -681641.9120 KinEng   =    577817.3530 Temp     =       298.4115 
PotEng   =  -1259459.2650 E_bond   =     67849.6486 E_angle  =    295347.3262 
E_dihed  =    142663.9686 E_impro  =      5887.6764 E_vdwl   =    -59560.8928 
E_coul   =   5502669.2304 E_long   =  -7214316.2225 Press    =       159.8000 
Volume   =   8364951.1686 
---------------- Step      500 ----- CPU =     14.2129 (sec) ----------------
TotEng   =   -675425.9973 KinEng   =    583229.7706 Temp     =       301.2068 
PotEng   =  -1258655.7679 E_bond   =     69487.8053 E_angle  =    295336.5901 
E_dihed  =    141773.0042 E_impro  =      5770.1733 E_vdwl   =    -57965.3750 
E_coul   =   5501242.9172 E_long   =  -7214300.8829 Press    =      -260.1160 
Volume   =   8362500.2200 
---------------- Step      550 ----- CPU =     15.6966 (sec) ----------------
TotEng   =   -671691.9164 KinEng   =    584996.7801 Temp     =       302.1193 
PotEng   =  -1256688.6965 E_bond   =     68638.7332 E_angle  =    295197.3783 
E_dihed  =    140948.4267 E_impro  =      6210.3468 E_vdwl   =    -55336.5098 
E_coul   =   5502021.3202 E_long   =  -7214368.3919 Press    =       325.2293 
Volume   =   8360927.3125 
---------------- Step      600 ----- CPU =     17.1241 (sec) ----------------
TotEng   =   -673438.9742 KinEng   =    585466.0823 Temp     =       302.3617 
PotEng   =  -1258905.0566 E_bond   =     68117.6838 E_angle  =    295862.1770 
E_dihed  =    142322.3569 E_impro  =      6025.8248 E_vdwl   =    -58810.9564 
E_coul   =   5501714.8501 E_long   =  -7214136.9928 Press    =      -157.0378 
Volume   =   8363816.6946 
Loop time of 17.1242 on 48 procs for 600 steps with 864000 atoms

Performance: 6.055 ns/day, 3.964 hours/ns, 35.038 timesteps/s
96.3% CPU use with 48 MPI tasks x 1 OpenMP threads

MPI task timing breakdown:
Section |  min time  |  avg time  |  max time  |%varavg| %total
---------------------------------------------------------------
Pair    | 1.4375     | 1.4997     | 1.5582     |   3.4 |  8.76
Bond    | 3.0358     | 3.8395     | 4.7109     |  32.9 | 22.42
Kspace  | 2.2932     | 3.1801     | 4.0135     |  35.9 | 18.57
Neigh   | 0.93798    | 0.96605    | 0.98277    |   1.0 |  5.64
Comm    | 1.7173     | 1.7902     | 2.0679     |   6.7 | 10.45
Output  | 0.0021296  | 0.0021817  | 0.0025255  |   0.1 |  0.01
Modify  | 4.9202     | 5.4327     | 5.5616     |   7.6 | 31.73
Other   |            | 0.4138     |            |       |  2.42

Nlocal:          18000 ave       18139 max       17876 min
Histogram: 6 6 2 5 8 5 7 2 2 5
Nghost:        34615.9 ave       34761 max       34409 min
Histogram: 3 1 5 2 6 4 6 12 3 6
Neighs:              0 ave           0 max           0 min
Histogram: 48 0 0 0 0 0 0 0 0 0

Total # of neighbors = 0
Ave neighs/atom = 0
Ave special neighs/atom = 7.431875
Neighbor list builds = 72
Dangerous builds = 0


---------------------------------------------------------------------
      Device Time Info (average): 
---------------------------------------------------------------------
Data Transfer:   0.0586 s.
Neighbor copy:   0.3746 s.
Neighbor build:  0.4624 s.
Force calc:      1.2997 s.
Device Overhead: 0.3987 s.
Average split:   1.0000.
Lanes / atom:    8.
Vector width:    32.
Max Mem / Proc:  86.59 MB.
CPU Neighbor:    0.2192 s.
CPU Cast/Pack:   0.6792 s.
CPU Driver_Time: 0.0092 s.
CPU Idle_Time:   0.0161 s.
---------------------------------------------------------------------



---------------------------------------------------------------------
    Device Time Info (average) for kspace: 
---------------------------------------------------------------------
Data Out:        0.0284 s.
Data In:         0.2732 s.
Kernel (map):    0.7470 s.
Kernel (rho):    0.1043 s.
Force interp:    0.2750 s.
Total rho:       0.8797 s.
Total interp:    0.5483 s.
Force copy:      0.0882 s.
Total:           1.5161 s.
CPU Poisson:     2.7327 s.
CPU Data Cast:   0.1071 s.
CPU Idle Time:   0.3934 s.
Max Mem / Proc:  4.63 MB.
---------------------------------------------------------------------

Total wall time: 0:03:38
