LAMMPS (7 Jan 2022)
  using 1 OpenMP thread(s) per MPI task
Reading data file ...
  orthogonal box = (-27.5 -38.5 -36.3646) to (27.5 38.5 36.3615)
  3 by 4 by 3 MPI processor grid
  reading atoms ...
  32000 atoms
  reading velocities ...
  32000 velocities
  scanning bonds ...
  4 = max bonds/atom
  scanning angles ...
  8 = max angles/atom
  scanning dihedrals ...
  18 = max dihedrals/atom
  scanning impropers ...
  2 = max impropers/atom
  reading bonds ...
  27723 bonds
  reading angles ...
  40467 angles
  reading dihedrals ...
  56829 dihedrals
  reading impropers ...
  1034 impropers
Finding 1-2 1-3 1-4 neighbors ...
  special bond factors lj:    0        0        0       
  special bond factors coul:  0        0        0       
     4 = max # of 1-2 neighbors
    12 = max # of 1-3 neighbors
    24 = max # of 1-4 neighbors
    26 = max # of special neighbors
  special bonds CPU = 0.007 seconds
  read_data CPU = 0.328 seconds
Replicating atoms ...
  orthogonal box = (-27.5 -38.5 -36.3646) to (137.5 192.5 181.8137)
  3 by 4 by 3 MPI processor grid
  864000 atoms
  748521 bonds
  1092609 angles
  1534383 dihedrals
  27918 impropers
Finding 1-2 1-3 1-4 neighbors ...
  special bond factors lj:    0        0        0       
  special bond factors coul:  0        0        0       
     4 = max # of 1-2 neighbors
    12 = max # of 1-3 neighbors
    24 = max # of 1-4 neighbors
    26 = max # of special neighbors
  special bonds CPU = 0.047 seconds
  replicate CPU = 0.114 seconds
Finding SHAKE clusters ...
   43659 = # of size 2 clusters
   98091 = # of size 3 clusters
   20169 = # of size 4 clusters
  114291 = # of frozen angles
  find clusters CPU = 0.026 seconds

CITE-CITE-CITE-CITE-CITE-CITE-CITE-CITE-CITE-CITE-CITE-CITE-CITE

Your simulation uses code contributions which should be cited:
- GPU package (short-range, long-range and three-body potentials):
The log file lists these citations in BibTeX format.

CITE-CITE-CITE-CITE-CITE-CITE-CITE-CITE-CITE-CITE-CITE-CITE-CITE

PPPM initialization ...
  using 12-bit tables for long-range coulomb (../kspace.cpp:340)
  G vector (1/distance) = 0.24587501
  grid = 72 96 90
  stencil order = 5
  estimated absolute RMS force accuracy = 0.041154918
  estimated relative force accuracy = 0.00012393681
  using single precision MKL FFT
  3d grid and FFT values/proc = 29435 20736

--------------------------------------------------------------------------
- Using acceleration for pppm:
-  with 18 proc(s) per device.
-  Horizontal vector operations: ENABLED
-  Shared memory system: No
--------------------------------------------------------------------------
Device 0: Tesla V100-SXM2-16GB, 80 CUs, 10/16 GB, 1.5 GHZ (Mixed Precision)
Device 1: Tesla V100-SXM2-16GB, 80 CUs, 1.5 GHZ (Mixed Precision)
--------------------------------------------------------------------------

Initializing Device and compiling on process 0...Done.
Initializing Devices 0-1 on core 0...Done.
Initializing Devices 0-1 on core 1...Done.
Initializing Devices 0-1 on core 2...Done.
Initializing Devices 0-1 on core 3...Done.
Initializing Devices 0-1 on core 4...Done.
Initializing Devices 0-1 on core 5...Done.
Initializing Devices 0-1 on core 6...Done.
Initializing Devices 0-1 on core 7...Done.
Initializing Devices 0-1 on core 8...Done.
Initializing Devices 0-1 on core 9...Done.
Initializing Devices 0-1 on core 10...Done.
Initializing Devices 0-1 on core 11...Done.
Initializing Devices 0-1 on core 12...Done.
Initializing Devices 0-1 on core 13...Done.
Initializing Devices 0-1 on core 14...Done.
Initializing Devices 0-1 on core 15...Done.
Initializing Devices 0-1 on core 16...Done.
Initializing Devices 0-1 on core 17...Done.


--------------------------------------------------------------------------
- Using acceleration for lj/charmm/coul/long:
-  with 18 proc(s) per device.
-  Horizontal vector operations: ENABLED
-  Shared memory system: No
--------------------------------------------------------------------------
Device 0: Tesla V100-SXM2-16GB, 80 CUs, 10/16 GB, 1.5 GHZ (Mixed Precision)
Device 1: Tesla V100-SXM2-16GB, 80 CUs, 1.5 GHZ (Mixed Precision)
--------------------------------------------------------------------------

Initializing Device and compiling on process 0...Done.
Initializing Devices 0-1 on core 0...Done.
Initializing Devices 0-1 on core 1...Done.
Initializing Devices 0-1 on core 2...Done.
Initializing Devices 0-1 on core 3...Done.
Initializing Devices 0-1 on core 4...Done.
Initializing Devices 0-1 on core 5...Done.
Initializing Devices 0-1 on core 6...Done.
Initializing Devices 0-1 on core 7...Done.
Initializing Devices 0-1 on core 8...Done.
Initializing Devices 0-1 on core 9...Done.
Initializing Devices 0-1 on core 10...Done.
Initializing Devices 0-1 on core 11...Done.
Initializing Devices 0-1 on core 12...Done.
Initializing Devices 0-1 on core 13...Done.
Initializing Devices 0-1 on core 14...Done.
Initializing Devices 0-1 on core 15...Done.
Initializing Devices 0-1 on core 16...Done.
Initializing Devices 0-1 on core 17...Done.

  generated 2278 of 2278 mixed pair_coeff terms from arithmetic mixing rule
Setting up Verlet run ...
  Unit style    : real
  Current step  : 0
  Time step     : 2
Per MPI rank memory allocation (min/avg/max) = 75.63 | 76.01 | 76.38 Mbytes
---------------- Step        0 ----- CPU =      0.0000 (sec) ----------------
TotEng   =   -684607.4721 KinEng   =    579010.4447 Temp     =       299.0277 
PotEng   =  -1263617.9167 E_bond   =     68525.8383 E_angle  =    294877.1036 
E_dihed  =    140718.2355 E_impro  =      5764.8128 E_vdwl   =    -62312.3570 
E_coul   =   5503140.8793 E_long   =  -7214332.4293 Press    =      -148.7819 
Volume   =   8315865.9045 
---------------- Step       50 ----- CPU =      2.0378 (sec) ----------------
TotEng   =   -683885.3577 KinEng   =    580537.3338 Temp     =       299.8163 
PotEng   =  -1264422.6915 E_bond   =     66738.5313 E_angle  =    292590.9525 
E_dihed  =    141472.6696 E_impro  =      6132.6084 E_vdwl   =    -53808.7553 
E_coul   =   5496968.4116 E_long   =  -7214517.1096 Press    =       238.5971 
Volume   =   8316859.4015 
---------------- Step      100 ----- CPU =      4.1354 (sec) ----------------
TotEng   =   -682807.5514 KinEng   =    582947.8225 Temp     =       301.0611 
PotEng   =  -1265755.3738 E_bond   =     69340.3937 E_angle  =    291119.6203 
E_dihed  =    140358.5994 E_impro  =      5850.7794 E_vdwl   =    -51258.7462 
E_coul   =   5493199.3976 E_long   =  -7214365.4180 Press    =        10.9315 
Volume   =   8319641.0074 
---------------- Step      150 ----- CPU =      6.1962 (sec) ----------------
TotEng   =   -681917.1602 KinEng   =    581260.5557 Temp     =       300.1898 
PotEng   =  -1263177.7159 E_bond   =     69016.1373 E_angle  =    293063.0051 
E_dihed  =    142148.7774 E_impro  =      5484.8574 E_vdwl   =    -55955.4701 
E_coul   =   5497249.8145 E_long   =  -7214184.8375 Press    =       242.9391 
Volume   =   8329982.4562 
---------------- Step      200 ----- CPU =      8.2675 (sec) ----------------
TotEng   =   -677204.2462 KinEng   =    581435.1513 Temp     =       300.2799 
PotEng   =  -1258639.3975 E_bond   =     67254.4322 E_angle  =    299042.8933 
E_dihed  =    141001.6910 E_impro  =      6305.8548 E_vdwl   =    -57346.7537 
E_coul   =   5499424.6352 E_long   =  -7214322.1503 Press    =        69.5799 
Volume   =   8342938.2335 
---------------- Step      250 ----- CPU =     10.2805 (sec) ----------------
TotEng   =   -673534.6636 KinEng   =    580070.6853 Temp     =       299.5753 
PotEng   =  -1253605.3489 E_bond   =     68766.4301 E_angle  =    299932.1276 
E_dihed  =    141557.9162 E_impro  =      5736.3227 E_vdwl   =    -58825.4599 
E_coul   =   5503945.2962 E_long   =  -7214717.9818 Press    =      -170.4354 
Volume   =   8353914.6784 
---------------- Step      300 ----- CPU =     12.3541 (sec) ----------------
TotEng   =   -673718.7586 KinEng   =    581831.3447 Temp     =       300.4845 
PotEng   =  -1255550.1033 E_bond   =     69266.0029 E_angle  =    295498.7069 
E_dihed  =    140876.0767 E_impro  =      5919.7297 E_vdwl   =    -59128.4904 
E_coul   =   5505903.3572 E_long   =  -7213885.4863 Press    =      -342.1329 
Volume   =   8361923.2447 
---------------- Step      350 ----- CPU =     14.4152 (sec) ----------------
TotEng   =   -677187.4069 KinEng   =    581477.1253 Temp     =       300.3016 
PotEng   =  -1258664.5321 E_bond   =     70026.3953 E_angle  =    296907.3620 
E_dihed  =    141771.2781 E_impro  =      5691.6451 E_vdwl   =    -58267.8273 
E_coul   =   5499585.0212 E_long   =  -7214378.4066 Press    =      -457.2387 
Volume   =   8365703.6732 
---------------- Step      400 ----- CPU =     16.4833 (sec) ----------------
TotEng   =   -681656.9506 KinEng   =    577291.8168 Temp     =       298.1401 
PotEng   =  -1258948.7674 E_bond   =     68467.2113 E_angle  =    297489.2422 
E_dihed  =    140285.3739 E_impro  =      5793.5401 E_vdwl   =    -56811.0160 
E_coul   =   5500093.5277 E_long   =  -7214266.6467 Press    =       210.3373 
Volume   =   8366274.5375 
---------------- Step      450 ----- CPU =     18.5724 (sec) ----------------
TotEng   =   -681674.0728 KinEng   =    578080.2083 Temp     =       298.5473 
PotEng   =  -1259754.2812 E_bond   =     67842.5372 E_angle  =    295344.0624 
E_dihed  =    142679.3129 E_impro  =      5878.6971 E_vdwl   =    -59630.1872 
E_coul   =   5502458.5800 E_long   =  -7214327.2836 Press    =       152.2218 
Volume   =   8364912.3085 
---------------- Step      500 ----- CPU =     20.7019 (sec) ----------------
TotEng   =   -675513.5488 KinEng   =    583332.6859 Temp     =       301.2599 
PotEng   =  -1258846.2347 E_bond   =     69513.2439 E_angle  =    295343.5114 
E_dihed  =    141845.8784 E_impro  =      5759.0798 E_vdwl   =    -57248.9631 
E_coul   =   5500233.3141 E_long   =  -7214292.2992 Press    =      -241.3309 
Volume   =   8362258.9698 
---------------- Step      550 ----- CPU =     22.7892 (sec) ----------------
TotEng   =   -671765.2961 KinEng   =    585625.6344 Temp     =       302.4441 
PotEng   =  -1257390.9306 E_bond   =     68631.9038 E_angle  =    295128.7395 
E_dihed  =    140986.7448 E_impro  =      6235.1090 E_vdwl   =    -56446.7909 
E_coul   =   5502431.6204 E_long   =  -7214358.2573 Press    =       291.5589 
Volume   =   8360394.9058 
---------------- Step      600 ----- CPU =     24.9565 (sec) ----------------
TotEng   =   -673506.4741 KinEng   =    585152.9078 Temp     =       302.2000 
PotEng   =  -1258659.3819 E_bond   =     68081.5847 E_angle  =    295901.0462 
E_dihed  =    142249.3121 E_impro  =      6013.9183 E_vdwl   =    -59054.8725 
E_coul   =   5502363.9473 E_long   =  -7214214.3181 Press    =      -172.5883 
Volume   =   8362837.2526 
Loop time of 24.9566 on 36 procs for 600 steps with 864000 atoms

Performance: 4.154 ns/day, 5.777 hours/ns, 24.042 timesteps/s
96.5% CPU use with 36 MPI tasks x 1 OpenMP threads

MPI task timing breakdown:
Section |  min time  |  avg time  |  max time  |%varavg| %total
---------------------------------------------------------------
Pair    | 3.4486     | 3.9467     | 4.1656     |   7.3 | 15.81
Bond    | 4.7766     | 4.9333     | 5.1473     |   4.6 | 19.77
Kspace  | 5.1366     | 5.3696     | 5.5428     |   4.9 | 21.52
Neigh   | 1.2346     | 1.2535     | 1.2717     |   0.7 |  5.02
Comm    | 1.6795     | 1.8305     | 2.0087     |   9.6 |  7.33
Output  | 0.0026864  | 0.0027419  | 0.0030637  |   0.1 |  0.01
Modify  | 6.6504     | 7.1192     | 7.5707     |  10.8 | 28.53
Other   |            | 0.5012     |            |       |  2.01

Nlocal:          24000 ave       24049 max       23949 min
Histogram: 3 2 6 3 3 4 5 4 1 5
Nghost:        40614.2 ave       40769 max       40431 min
Histogram: 2 6 0 1 4 5 8 3 3 4
Neighs:              0 ave           0 max           0 min
Histogram: 36 0 0 0 0 0 0 0 0 0

Total # of neighbors = 0
Ave neighs/atom = 0
Ave special neighs/atom = 7.431875
Neighbor list builds = 72
Dangerous builds = 0


---------------------------------------------------------------------
      Device Time Info (average): 
---------------------------------------------------------------------
Data Transfer:   0.0714 s.
Neighbor copy:   0.7555 s.
Neighbor build:  1.5129 s.
Force calc:      4.1496 s.
Device Overhead: 1.1403 s.
Average split:   1.0000.
Lanes / atom:    8.
Vector width:    32.
Max Mem / Proc:  116.14 MB.
CPU Neighbor:    0.1729 s.
CPU Cast/Pack:   0.6015 s.
CPU Driver_Time: 0.0133 s.
CPU Idle_Time:   0.3000 s.
---------------------------------------------------------------------



---------------------------------------------------------------------
    Device Time Info (average) for kspace: 
---------------------------------------------------------------------
Data Out:        0.0392 s.
Data In:         0.2752 s.
Kernel (map):    2.4338 s.
Kernel (rho):    0.0916 s.
Force interp:    1.9295 s.
Total rho:       2.5646 s.
Total interp:    2.2047 s.
Force copy:      0.0779 s.
Total:           4.8472 s.
CPU Poisson:     2.9463 s.
CPU Data Cast:   0.0758 s.
CPU Idle Time:   2.3933 s.
Max Mem / Proc:  6.01 MB.
---------------------------------------------------------------------

Total wall time: 0:01:55
