LAMMPS (7 Jan 2022)
  using 1 OpenMP thread(s) per MPI task
Reading data file ...
  orthogonal box = (-27.5 -38.5 -36.3646) to (27.5 38.5 36.3615)
  2 by 3 by 2 MPI processor grid
  reading atoms ...
  32000 atoms
  reading velocities ...
  32000 velocities
  scanning bonds ...
  4 = max bonds/atom
  scanning angles ...
  8 = max angles/atom
  scanning dihedrals ...
  18 = max dihedrals/atom
  scanning impropers ...
  2 = max impropers/atom
  reading bonds ...
  27723 bonds
  reading angles ...
  40467 angles
  reading dihedrals ...
  56829 dihedrals
  reading impropers ...
  1034 impropers
Finding 1-2 1-3 1-4 neighbors ...
  special bond factors lj:    0        0        0       
  special bond factors coul:  0        0        0       
     4 = max # of 1-2 neighbors
    12 = max # of 1-3 neighbors
    24 = max # of 1-4 neighbors
    26 = max # of special neighbors
  special bonds CPU = 0.005 seconds
  read_data CPU = 0.322 seconds
Finding SHAKE clusters ...
    1617 = # of size 2 clusters
    3633 = # of size 3 clusters
     747 = # of size 4 clusters
    4233 = # of frozen angles
  find clusters CPU = 0.003 seconds

CITE-CITE-CITE-CITE-CITE-CITE-CITE-CITE-CITE-CITE-CITE-CITE-CITE

Your simulation uses code contributions which should be cited:
- GPU package (short-range, long-range and three-body potentials):
The log file lists these citations in BibTeX format.

CITE-CITE-CITE-CITE-CITE-CITE-CITE-CITE-CITE-CITE-CITE-CITE-CITE

PPPM initialization ...
  using 12-bit tables for long-range coulomb (../kspace.cpp:340)
  G vector (1/distance) = 0.24883488
  grid = 25 32 32
  stencil order = 5
  estimated absolute RMS force accuracy = 0.035547797
  estimated relative force accuracy = 0.00010705113
  using single precision MKL FFT
  3d grid and FFT values/proc = 6426 2400

--------------------------------------------------------------------------
- Using acceleration for pppm:
-  with 6 proc(s) per device.
-  Horizontal vector operations: ENABLED
-  Shared memory system: No
--------------------------------------------------------------------------
Device 0: Tesla V100-SXM2-16GB, 80 CUs, 14/16 GB, 1.5 GHZ (Mixed Precision)
Device 1: Tesla V100-SXM2-16GB, 80 CUs, 1.5 GHZ (Mixed Precision)
--------------------------------------------------------------------------

Initializing Device and compiling on process 0...Done.
Initializing Devices 0-1 on core 0...Done.
Initializing Devices 0-1 on core 1...Done.
Initializing Devices 0-1 on core 2...Done.
Initializing Devices 0-1 on core 3...Done.
Initializing Devices 0-1 on core 4...Done.
Initializing Devices 0-1 on core 5...Done.


--------------------------------------------------------------------------
- Using acceleration for lj/charmm/coul/long:
-  with 6 proc(s) per device.
-  Horizontal vector operations: ENABLED
-  Shared memory system: No
--------------------------------------------------------------------------
Device 0: Tesla V100-SXM2-16GB, 80 CUs, 14/16 GB, 1.5 GHZ (Mixed Precision)
Device 1: Tesla V100-SXM2-16GB, 80 CUs, 1.5 GHZ (Mixed Precision)
--------------------------------------------------------------------------

Initializing Device and compiling on process 0...Done.
Initializing Devices 0-1 on core 0...Done.
Initializing Devices 0-1 on core 1...Done.
Initializing Devices 0-1 on core 2...Done.
Initializing Devices 0-1 on core 3...Done.
Initializing Devices 0-1 on core 4...Done.
Initializing Devices 0-1 on core 5...Done.

  generated 2278 of 2278 mixed pair_coeff terms from arithmetic mixing rule
Setting up Verlet run ...
  Unit style    : real
  Current step  : 0
  Time step     : 2
Per MPI rank memory allocation (min/avg/max) = 18.46 | 18.55 | 18.69 Mbytes
---------------- Step        0 ----- CPU =      0.0000 (sec) ----------------
TotEng   =    -25356.2687 KinEng   =     21444.8313 Temp     =       299.0397 
PotEng   =    -46801.1000 E_bond   =      2537.9940 E_angle  =     10921.3742 
E_dihed  =      5211.7865 E_impro  =       213.5116 E_vdwl   =     -2307.8635 
E_coul   =    207025.8394 E_long   =   -270403.7421 Press    =      -149.3321 
Volume   =    307995.0335 
---------------- Step       50 ----- CPU =      0.3092 (sec) ----------------
TotEng   =    -25330.0793 KinEng   =     21500.9993 Temp     =       299.8229 
PotEng   =    -46831.0786 E_bond   =      2471.7037 E_angle  =     10836.5108 
E_dihed  =      5239.6320 E_impro  =       227.1218 E_vdwl   =     -1993.2895 
E_coul   =    206797.6440 E_long   =   -270410.4015 Press    =       237.6586 
Volume   =    308031.6776 
---------------- Step      100 ----- CPU =      0.6138 (sec) ----------------
TotEng   =    -25290.7889 KinEng   =     21591.9065 Temp     =       301.0906 
PotEng   =    -46882.6954 E_bond   =      2567.9808 E_angle  =     10781.9581 
E_dihed  =      5198.7495 E_impro  =       216.7865 E_vdwl   =     -1902.6696 
E_coul   =    206659.4813 E_long   =   -270404.9820 Press    =         6.7250 
Volume   =    308134.2326 
---------------- Step      150 ----- CPU =      0.9022 (sec) ----------------
TotEng   =    -25258.0939 KinEng   =     21529.6585 Temp     =       300.2226 
PotEng   =    -46787.7524 E_bond   =      2556.3453 E_angle  =     10852.7808 
E_dihed  =      5265.2325 E_impro  =       203.0688 E_vdwl   =     -2066.1448 
E_coul   =    206797.4502 E_long   =   -270396.4851 Press    =       251.4985 
Volume   =    308515.2415 
---------------- Step      200 ----- CPU =      1.2014 (sec) ----------------
TotEng   =    -25078.9160 KinEng   =     21571.2025 Temp     =       300.8019 
PotEng   =    -46650.1185 E_bond   =      2488.6944 E_angle  =     11073.4434 
E_dihed  =      5221.7530 E_impro  =       232.8567 E_vdwl   =     -2167.6394 
E_coul   =    206902.8945 E_long   =   -270402.1210 Press    =        20.7638 
Volume   =    308997.5519 
---------------- Step      250 ----- CPU =      1.5018 (sec) ----------------
TotEng   =    -24944.3204 KinEng   =     21547.7782 Temp     =       300.4752 
PotEng   =    -46492.0986 E_bond   =      2542.5560 E_angle  =     11105.4635 
E_dihed  =      5239.6500 E_impro  =       212.3519 E_vdwl   =     -2168.9079 
E_coul   =    206988.9575 E_long   =   -270412.1696 Press    =      -169.9669 
Volume   =    309388.1458 
---------------- Step      300 ----- CPU =      1.7917 (sec) ----------------
TotEng   =    -25000.6134 KinEng   =     21498.8216 Temp     =       299.7925 
PotEng   =    -46499.4350 E_bond   =      2557.9929 E_angle  =     10922.2943 
E_dihed  =      5211.1270 E_impro  =       222.2681 E_vdwl   =     -2219.8425 
E_coul   =    207193.2055 E_long   =   -270386.4802 Press    =      -372.0219 
Volume   =    309663.4816 
---------------- Step      350 ----- CPU =      2.0921 (sec) ----------------
TotEng   =    -25131.7549 KinEng   =     21468.7064 Temp     =       299.3726 
PotEng   =    -46600.4614 E_bond   =      2580.2095 E_angle  =     10951.0834 
E_dihed  =      5250.5976 E_impro  =       212.6481 E_vdwl   =     -2168.2508 
E_coul   =    206973.9090 E_long   =   -270400.6582 Press    =      -333.5521 
Volume   =    309799.9350 
---------------- Step      400 ----- CPU =      2.3900 (sec) ----------------
TotEng   =    -25213.5947 KinEng   =     21439.1847 Temp     =       298.9609 
PotEng   =    -46652.7795 E_bond   =      2526.2788 E_angle  =     10965.0124 
E_dihed  =      5205.5836 E_impro  =       213.0791 E_vdwl   =     -2196.1736 
E_coul   =    207047.9465 E_long   =   -270414.5062 Press    =       178.8238 
Volume   =    309813.7239 
---------------- Step      450 ----- CPU =      2.6885 (sec) ----------------
TotEng   =    -25181.0811 KinEng   =     21463.9117 Temp     =       299.3057 
PotEng   =    -46644.9928 E_bond   =      2501.2172 E_angle  =     10958.5317 
E_dihed  =      5241.5481 E_impro  =       224.6475 E_vdwl   =     -2224.9454 
E_coul   =    207042.5146 E_long   =   -270388.5064 Press    =       191.0632 
Volume   =    309761.3999 
---------------- Step      500 ----- CPU =      2.9826 (sec) ----------------
TotEng   =    -25003.6185 KinEng   =     21611.2855 Temp     =       301.3608 
PotEng   =    -46614.9040 E_bond   =      2563.6713 E_angle  =     10942.5403 
E_dihed  =      5259.9816 E_impro  =       217.8688 E_vdwl   =     -2177.8908 
E_coul   =    206979.8720 E_long   =   -270400.9472 Press    =      -291.5650 
Volume   =    309740.9664 
---------------- Step      550 ----- CPU =      3.2854 (sec) ----------------
TotEng   =    -24916.9541 KinEng   =     21592.9003 Temp     =       301.1044 
PotEng   =    -46509.8544 E_bond   =      2509.1756 E_angle  =     10927.0550 
E_dihed  =      5198.8660 E_impro  =       230.2385 E_vdwl   =     -2062.5505 
E_coul   =    207077.3216 E_long   =   -270389.9606 Press    =       430.0203 
Volume   =    309688.8613 
---------------- Step      600 ----- CPU =      3.5806 (sec) ----------------
TotEng   =    -24886.7084 KinEng   =     21768.4550 Temp     =       303.5525 
PotEng   =    -46655.1633 E_bond   =      2571.1242 E_angle  =     10908.0184 
E_dihed  =      5252.8399 E_impro  =       216.2945 E_vdwl   =     -2255.6595 
E_coul   =    207040.1368 E_long   =   -270387.9177 Press    =        21.3709 
Volume   =    309823.7519 
Loop time of 3.58072 on 12 procs for 600 steps with 32000 atoms

Performance: 28.955 ns/day, 0.829 hours/ns, 167.564 timesteps/s
95.7% CPU use with 12 MPI tasks x 1 OpenMP threads

MPI task timing breakdown:
Section |  min time  |  avg time  |  max time  |%varavg| %total
---------------------------------------------------------------
Pair    | 0.78204    | 0.82233    | 0.84952    |   2.3 | 22.97
Bond    | 0.47034    | 0.5443     | 0.69327    |   8.6 | 15.20
Kspace  | 0.95414    | 1.1008     | 1.1794     |   6.1 | 30.74
Neigh   | 0.057465   | 0.058131   | 0.058924   |   0.2 |  1.62
Comm    | 0.23109    | 0.24605    | 0.27382    |   3.6 |  6.87
Output  | 0.00098947 | 0.0010152  | 0.0012495  |   0.2 |  0.03
Modify  | 0.68951    | 0.7642     | 0.82124    |   5.4 | 21.34
Other   |            | 0.04386    |            |       |  1.22

Nlocal:        2666.67 ave        2735 max        2627 min
Histogram: 4 2 1 0 1 1 0 1 0 2
Nghost:          13247 ave       13346 max       13151 min
Histogram: 1 2 2 0 0 1 3 2 0 1
Neighs:              0 ave           0 max           0 min
Histogram: 12 0 0 0 0 0 0 0 0 0

Total # of neighbors = 0
Ave neighs/atom = 0
Ave special neighs/atom = 7.431875
Neighbor list builds = 66
Dangerous builds = 0


---------------------------------------------------------------------
      Device Time Info (average): 
---------------------------------------------------------------------
Data Transfer:   0.0181 s.
Neighbor copy:   0.0602 s.
Neighbor build:  0.2132 s.
Force calc:      0.7707 s.
Device Overhead: 0.3951 s.
Average split:   1.0000.
Lanes / atom:    8.
Vector width:    32.
Max Mem / Proc:  13.19 MB.
CPU Neighbor:    0.0371 s.
CPU Cast/Pack:   0.0710 s.
CPU Driver_Time: 0.0099 s.
CPU Idle_Time:   0.0894 s.
---------------------------------------------------------------------



---------------------------------------------------------------------
    Device Time Info (average) for kspace: 
---------------------------------------------------------------------
Data Out:        0.0097 s.
Data In:         0.0216 s.
Kernel (map):    0.4891 s.
Kernel (rho):    0.0687 s.
Force interp:    0.4597 s.
Total rho:       0.5674 s.
Total interp:    0.4813 s.
Force copy:      0.0107 s.
Total:           1.0594 s.
CPU Poisson:     0.6212 s.
CPU Data Cast:   0.0067 s.
CPU Idle Time:   0.4586 s.
Max Mem / Proc:  0.88 MB.
---------------------------------------------------------------------

Total wall time: 0:00:14
