LAMMPS (7 Jan 2022)
KOKKOS mode is enabled (../kokkos.cpp:105)
  will use up to 1 GPU(s) per node
Reading data file ...
  orthogonal box = (-27.5 -38.5 -36.3646) to (27.5 38.5 36.3615)
  1 by 1 by 1 MPI processor grid
  reading atoms ...
  32000 atoms
  reading velocities ...
  32000 velocities
  scanning bonds ...
  4 = max bonds/atom
  scanning angles ...
  8 = max angles/atom
  scanning dihedrals ...
  18 = max dihedrals/atom
  scanning impropers ...
  2 = max impropers/atom
  reading bonds ...
  27723 bonds
  reading angles ...
  40467 angles
  reading dihedrals ...
  56829 dihedrals
  reading impropers ...
  1034 impropers
Finding 1-2 1-3 1-4 neighbors ...
  special bond factors lj:    0        0        0       
  special bond factors coul:  0        0        0       
     4 = max # of 1-2 neighbors
    12 = max # of 1-3 neighbors
    24 = max # of 1-4 neighbors
    26 = max # of special neighbors
  special bonds CPU = 0.053 seconds
  read_data CPU = 0.660 seconds
Replicating atoms ...
  orthogonal box = (-27.5 -38.5 -36.3646) to (82.5 115.5 109.0876)
  1 by 1 by 1 MPI processor grid
  256000 atoms
  221784 bonds
  323736 angles
  454632 dihedrals
  8272 impropers
Finding 1-2 1-3 1-4 neighbors ...
  special bond factors lj:    0        0        0       
  special bond factors coul:  0        0        0       
     4 = max # of 1-2 neighbors
    12 = max # of 1-3 neighbors
    24 = max # of 1-4 neighbors
    26 = max # of special neighbors
  special bonds CPU = 0.482 seconds
  replicate CPU = 1.421 seconds
Finding SHAKE clusters ...
   12936 = # of size 2 clusters
   29064 = # of size 3 clusters
    5976 = # of size 4 clusters
   33864 = # of frozen angles
  find clusters CPU = 0.233 seconds
PPPM initialization ...
  using 12-bit tables for long-range coulomb (../kspace.cpp:340)
  G vector (1/distance) = 0.24587501
  grid = 48 64 60
  stencil order = 5
  estimated absolute RMS force accuracy = 0.041154918
  estimated relative force accuracy = 0.00012393681
  using double precision cuFFT
  3d grid and FFT values/proc = 237705 184320
  generated 2278 of 2278 mixed pair_coeff terms from arithmetic mixing rule
Neighbor list info ...
  update every 1 steps, delay 5 steps, check yes
  max neighbors/atom: 2000, page size: 100000
  master list distance cutoff = 12
  ghost atom cutoff = 12
  binsize = 12, bins = 10 13 13
  1 neighbor lists, perpetual/occasional/extra = 1 0 0
  (1) pair lj/charmm/coul/long/kk, perpetual
      attributes: half, newton on, kokkos_device
      pair build: half/bin/kk/device
      stencil: half/bin/3d
      bin: kk/device
Setting up Verlet run ...
  Unit style    : real
  Current step  : 0
  Time step     : 2
WARNING: Fixes cannot yet send exchange data in Kokkos communication, switching to classic exchange/border communication (../comm_kokkos.cpp:581)
Per MPI rank memory allocation (min/avg/max) = 476.8 | 476.8 | 476.8 Mbytes
---------------- Step        0 ----- CPU =      0.0000 (sec) ----------------
TotEng   =   -202846.5845 KinEng   =    171558.6503 Temp     =       299.0288 
PotEng   =   -374405.2348 E_bond   =     20303.9521 E_angle  =     87370.9937 
E_dihed  =     41694.2920 E_impro  =      1708.0927 E_vdwl   =    -18462.9073 
E_coul   =   1630560.2503 E_long   =  -2137579.9081 Press    =      -148.7724 
Volume   =   2463960.2680 
---------------- Step       50 ----- CPU =      2.4260 (sec) ----------------
TotEng   =   -202633.3097 KinEng   =    172010.7455 Temp     =       299.8168 
PotEng   =   -374644.0552 E_bond   =     19774.3522 E_angle  =     86693.5128 
E_dihed  =     41917.8118 E_impro  =      1817.0673 E_vdwl   =    -15943.3562 
E_coul   =   1628731.1899 E_long   =  -2137634.6329 Press    =       238.5807 
Volume   =   2464254.6246 
---------------- Step      100 ----- CPU =      5.0516 (sec) ----------------
TotEng   =   -202314.9825 KinEng   =    172724.3971 Temp     =       301.0607 
PotEng   =   -375039.3797 E_bond   =     20545.2148 E_angle  =     86257.3238 
E_dihed  =     41587.6716 E_impro  =      1733.5573 E_vdwl   =    -15187.7391 
E_coul   =   1627614.2841 E_long   =  -2137589.6922 Press    =        10.9237 
Volume   =   2465078.7363 
---------------- Step      150 ----- CPU =      7.6458 (sec) ----------------
TotEng   =   -202051.9026 KinEng   =    172224.3930 Temp     =       300.1892 
PotEng   =   -374276.2956 E_bond   =     20449.1093 E_angle  =     86832.9951 
E_dihed  =     42118.0526 E_impro  =      1625.1238 E_vdwl   =    -16579.5296 
E_coul   =   1628814.1443 E_long   =  -2137536.1912 Press    =       242.9296 
Volume   =   2468142.7232 
---------------- Step      200 ----- CPU =     10.0900 (sec) ----------------
TotEng   =   -200655.1602 KinEng   =    172275.7554 Temp     =       300.2787 
PotEng   =   -372930.9156 E_bond   =     19927.1120 E_angle  =     88604.7854 
E_dihed  =     41778.1391 E_impro  =      1868.4014 E_vdwl   =    -16989.1291 
E_coul   =   1629456.5054 E_long   =  -2137576.7297 Press    =        69.8916 
Volume   =   2471981.2694 
---------------- Step      250 ----- CPU =     12.7829 (sec) ----------------
TotEng   =   -199571.4307 KinEng   =    171873.0181 Temp     =       299.5767 
PotEng   =   -371444.4488 E_bond   =     20374.9799 E_angle  =     88867.6711 
E_dihed  =     41942.8378 E_impro  =      1699.7802 E_vdwl   =    -17426.4448 
E_coul   =   1630790.6814 E_long   =  -2137693.9545 Press    =      -170.4854 
Volume   =   2475233.6513 
---------------- Step      300 ----- CPU =     15.2161 (sec) ----------------
TotEng   =   -199636.0297 KinEng   =    172411.7985 Temp     =       300.5158 
PotEng   =   -372047.8283 E_bond   =     20522.1412 E_angle  =     87551.3238 
E_dihed  =     41740.7471 E_impro  =      1754.0172 E_vdwl   =    -17521.7750 
E_coul   =   1631353.1160 E_long   =  -2137447.3986 Press    =      -343.1720 
Volume   =   2477607.4564 
---------------- Step      350 ----- CPU =     17.8520 (sec) ----------------
TotEng   =   -200677.0167 KinEng   =    172384.2353 Temp     =       300.4678 
PotEng   =   -373061.2519 E_bond   =     20745.3685 E_angle  =     87979.1803 
E_dihed  =     42007.0245 E_impro  =      1685.3545 E_vdwl   =    -17292.6799 
E_coul   =   1629410.7082 E_long   =  -2137596.2080 Press    =      -464.4978 
Volume   =   2478732.2006 
---------------- Step      400 ----- CPU =     20.2900 (sec) ----------------
TotEng   =   -202013.6033 KinEng   =    170941.0789 Temp     =       297.9524 
PotEng   =   -372954.6822 E_bond   =     20302.9711 E_angle  =     88152.5331 
E_dihed  =     41555.9982 E_impro  =      1712.1192 E_vdwl   =    -16707.5855 
E_coul   =   1629590.2879 E_long   =  -2137561.0062 Press    =       226.4592 
Volume   =   2478959.4895 
---------------- Step      450 ----- CPU =     22.9956 (sec) ----------------
TotEng   =   -201934.9636 KinEng   =    171473.8735 Temp     =       298.8810 
PotEng   =   -373408.8370 E_bond   =     20117.9814 E_angle  =     87566.6444 
E_dihed  =     42262.3870 E_impro  =      1727.1339 E_vdwl   =    -17910.2974 
E_coul   =   1630384.8908 E_long   =  -2137557.5770 Press    =        92.7586 
Volume   =   2478879.5631 
---------------- Step      500 ----- CPU =     25.4869 (sec) ----------------
TotEng   =   -200160.5578 KinEng   =    173022.0851 Temp     =       301.5796 
PotEng   =   -373182.6429 E_bond   =     20629.2895 E_angle  =     87460.8656 
E_dihed  =     42001.3365 E_impro  =      1693.5336 E_vdwl   =    -17074.7337 
E_coul   =   1629739.3569 E_long   =  -2137632.2913 Press    =      -284.5674 
Volume   =   2478340.5563 
---------------- Step      550 ----- CPU =     28.1561 (sec) ----------------
TotEng   =   -199438.6293 KinEng   =    172788.4083 Temp     =       301.1723 
PotEng   =   -372227.0376 E_bond   =     20347.7226 E_angle  =     87417.8755 
E_dihed  =     41738.1552 E_impro  =      1840.8545 E_vdwl   =    -16533.0548 
E_coul   =   1630547.2024 E_long   =  -2137585.7932 Press    =       333.5876 
Volume   =   2478041.9854 
---------------- Step      600 ----- CPU =     30.6010 (sec) ----------------
TotEng   =   -199996.7981 KinEng   =    172887.7804 Temp     =       301.3455 
PotEng   =   -372884.5785 E_bond   =     20286.0097 E_angle  =     87803.6043 
E_dihed  =     42188.5563 E_impro  =      1798.5925 E_vdwl   =    -17710.2241 
E_coul   =   1630224.2647 E_long   =  -2137475.3820 Press    =      -278.9090 
Volume   =   2478973.5714 
Loop time of 30.601 on 1 procs for 600 steps with 256000 atoms

Performance: 3.388 ns/day, 7.084 hours/ns, 19.607 timesteps/s
98.5% CPU use with 1 MPI tasks x 1 OpenMP threads

MPI task timing breakdown:
Section |  min time  |  avg time  |  max time  |%varavg| %total
---------------------------------------------------------------
Pair    | 11.749     | 11.749     | 11.749     |   0.0 | 38.40
Bond    | 0.61086    | 0.61086    | 0.61086    |   0.0 |  2.00
Kspace  | 1.5682     | 1.5682     | 1.5682     |   0.0 |  5.12
Neigh   | 8.2356     | 8.2356     | 8.2356     |   0.0 | 26.91
Comm    | 7.2732     | 7.2732     | 7.2732     |   0.0 | 23.77
Output  | 0.0017819  | 0.0017819  | 0.0017819  |   0.0 |  0.01
Modify  | 1.0149     | 1.0149     | 1.0149     |   0.0 |  3.32
Other   |            | 0.1471     |            |       |  0.48

Nlocal:         256000 ave      256000 max      256000 min
Histogram: 1 0 0 0 0 0 0 0 0 0
Nghost:         162882 ave      162882 max      162882 min
Histogram: 1 0 0 0 0 0 0 0 0 0
Neighs:    9.56862e+07 ave 9.56862e+07 max 9.56862e+07 min
Histogram: 1 0 0 0 0 0 0 0 0 0

Total # of neighbors = 95686245
Ave neighs/atom = 373.77439
Ave special neighs/atom = 7.431875
Neighbor list builds = 66
Dangerous builds = 0
Total wall time: 0:00:50
